
 Working directory              : /var/folders/2v/xbgp75_9785319ghcgb4zr4r0000gr/T//molpro.jOeA6mGGLv/
 Global scratch directory       : /var/folders/2v/xbgp75_9785319ghcgb4zr4r0000gr/T//molpro.jOeA6mGGLv/
 Wavefunction directory         : /Users/peterk/wfu/
 Main file repository           : /var/folders/2v/xbgp75_9785319ghcgb4zr4r0000gr/T//molpro.jOeA6mGGLv/

 id        : peterk

 Nodes        nprocs
 pjk2022.local    1
 GA implementation: MPI file
 GA implementation (serial work in mppx): MPI file

 Using customized tuning parameters: mindgm=1; mindgv=20; mindgc=4; mindgr=1; noblas=0; minvec=7
 default implementation of scratch files=df  


 Variables initialized (1037), CPU time= 0.00 sec
 
 
 
 geometry={
 4
  O     0.0402907   -0.7150390   -0.2337508
  O    -0.0402907    0.7150390   -0.2337508
  H    -0.7702468   -0.9380581    0.2337569
  H     0.7702468    0.9380581    0.2337569
 }
 basis=cc-pVDZ
 core,small
 
 
 hf; ccsd
 
 
 
 {put,xml;noorbitals,nobasis}
 Commands initialized (841), CPU time= 0.01 sec, 716 directives.
 Default parameters read. Elapsed time= 0.05 sec

 Checking input...
 Passed
1


                                         ***  PROGRAM SYSTEM MOLPRO  ***
                                       Copyright, TTI GmbH Stuttgart, 2015
                                    Version 2023.1 linked Sat Jul 22 07:59:25 2023


 **********************************************************************************************************************************
 LABEL *                                                                                                                                                                 
  64 bit serial version                                                                  DATE: 02-Aug-23          TIME: 09:04:42  
 **********************************************************************************************************************************

 SHA1:             401d111a1dbfa49388eacdf0424f85138b2d30d0
 **********************************************************************************************************************************

 Memory per process:      3146 MW
 Total memory per node:   4194 MW
 Total GA space:          1049 MW

 GA preallocation disabled
 GA check enabled

 Geometry recognized as XYZ


 Variable memory set to 3145.7 MW

 SETTING BASIS          =    CC-PVDZ


 Recomputing integrals since basis changed


 Using spherical harmonics

 Library entry O      S cc-pVDZ              selected for orbital group  1
 Library entry O      P cc-pVDZ              selected for orbital group  1
 Library entry O      D cc-pVDZ              selected for orbital group  1
 Library entry H      S cc-pVDZ              selected for orbital group  2
 Library entry H      P cc-pVDZ              selected for orbital group  2


 PROGRAM * SEWARD (Integral evaluation for generally contracted gaussian basis sets)     Author: Roland Lindh, 1990

 Geometry written to block  1 of record 700


 Point group  C2  



 ATOMIC COORDINATES

 NR  ATOM    CHARGE       X              Y              Z

   1  O       8.00    0.076138388   -1.351227878   -0.441724993
   2  O       8.00   -0.076138388    1.351227878   -0.441724993
   3  H       1.00   -1.455555500   -1.772672898    0.441736521
   4  H       1.00    1.455555500    1.772672898    0.441736521

 Bond lengths in Bohr (Angstrom)

 1-2  2.706742569  1-3  1.817747595  2-4  1.817747595
     ( 1.432346483)     ( 0.961910603)     ( 0.961910603)

 Bond angles

  1-2-4  100.60737277   2-1-3  100.60737277

 NUCLEAR CHARGE:                   18
 NUMBER OF PRIMITIVE AOS:          68
 NUMBER OF SYMMETRY AOS:           66
 NUMBER OF CONTRACTIONS:           38   (   19A   +   19B   )
 NUMBER OF INNER CORE ORBITALS:     0   (    0A   +    0B   )
 NUMBER OF OUTER CORE ORBITALS:     2   (    1A   +    1B   )
 NUMBER OF VALENCE ORBITALS:       10   (    5A   +    5B   )


 NUCLEAR REPULSION ENERGY   37.20075843

 Eigenvalues of metric

         1 0.240E-01 0.467E-01 0.138E+00 0.156E+00 0.197E+00 0.222E+00 0.553E+00 0.573E+00
         2 0.120E-01 0.472E-01 0.888E-01 0.149E+00 0.170E+00 0.188E+00 0.425E+00 0.563E+00


 Contracted 2-electron integrals neglected if value below      1.0D-11
 AO integral compression algorithm  1   Integral accuracy      1.0D-11

     1.049 MB (compressed) written to integral file ( 59.0%)


 NUMBER OF SORTED TWO-ELECTRON INTEGRALS:     144590.     BUFFER LENGTH:  32768
 NUMBER OF SEGMENTS:   1  SEGMENT LENGTH:     144590      RECORD LENGTH: 524288

 Memory used in sort:       0.70 MW

 SORT1 READ      245816. AND WROTE      123438. INTEGRALS IN      1 RECORDS. CPU TIME:     0.00 SEC, REAL TIME:     0.00 SEC
 SORT2 READ      123438. AND WROTE      144590. INTEGRALS IN      4 RECORDS. CPU TIME:     0.01 SEC, REAL TIME:     0.01 SEC

 FILE SIZES:   FILE 1:    31.1 MBYTE,  FILE 4:     4.3 MBYTE,   TOTAL:     35.4 MBYTE

 OPERATOR DM      FOR CENTER  0  COORDINATES:    0.000000    0.000000    0.000000


 **********************************************************************************************************************************
 DATASETS  * FILE   NREC   LENGTH (MB)   RECORD NAMES
              1      19       29.27       500      610      700      900      950      970     1000      129      960     1100   
                                          VAR    BASINP    GEOM    SYMINP    ZMAT    AOBASIS   BASIS     P2S    ABASIS      S 
                                         1400     1410     1200     1210     1080     1600     1650     1300     1700   
                                           T        V       H0       H01     AOSYM     SMH    MOLCAS    ERIS     OPER   

 PROGRAMS   *        TOTAL       INT
 CPU TIMES  *         0.29      0.20
 REAL TIME  *         0.79 SEC
 DISK USED  *        34.11 MB
 **********************************************************************************************************************************


 Program * Restricted Hartree-Fock

 Orbital guess generated from atomic densities. Full valence occupancy:    6   6

 Initial occupancy:   5   4

 NELEC=   18   SYM=1   MS2= 0   THRE=1.0D-08   THRD=3.2D-06   THRG=3.2D-06  HFMA2=F  DIIS_START=2   DIIS_MAX=10   DIIS_INCORE=F

 Level shifts:    0.00 (CLOSED)    0.00 (OPEN)    0.30 (GAP_MIN)

 ITER           ETOT              DE          GRAD        DDIFF     DIIS  NEXP   TIME(IT)  TIME(TOT)  DIAG
   1     -150.75915476    -150.75915476     0.00D+00     0.29D+00     0     0       0.00      0.00    start
   2     -150.78431565      -0.02516089     0.15D-01     0.30D-01     1     0       0.00      0.00    diag
   3     -150.78525102      -0.00093537     0.29D-02     0.47D-02     2     0       0.00      0.00    diag
   4     -150.78535662      -0.00010560     0.79D-03     0.18D-02     3     0       0.00      0.00    diag
   5     -150.78536800      -0.00001138     0.29D-03     0.48D-03     4     0       0.00      0.00    diag
   6     -150.78536881      -0.00000081     0.54D-04     0.11D-03     5     0       0.01      0.01    diag
   7     -150.78536884      -0.00000003     0.99D-05     0.23D-04     6     0       0.00      0.01    diag
   8     -150.78536885      -0.00000000     0.26D-05     0.68D-05     7     0       0.00      0.01    fixocc
   9     -150.78536885      -0.00000000     0.64D-06     0.17D-05     8     0       0.00      0.01    diag
  10     -150.78536885      -0.00000000     0.15D-06     0.30D-06     0     0       0.00      0.01    diag/orth

 Final occupancy:   5   4

 !RHF STATE 1.1 Energy               -150.785368846925
  RHF One-electron energy            -282.123403951003
  RHF Two-electron energy              94.137276671770
  RHF Kinetic energy                  150.704496363104
  RHF Nuclear energy                   37.200758432308
  RHF Virial quotient                  -1.000536629535

 !RHF STATE 1.1 Dipole moment           0.00000000     0.00000000     0.69724962
 Dipole moment /Debye                   0.00000000     0.00000000     1.77223176

 Orbital energies:

           1.1          2.1          3.1          4.1          5.1          6.1          7.1
    -20.621392    -1.477229    -0.704135    -0.605665    -0.512473     0.189757     0.827400

           1.2          2.2          3.2          4.2          5.2          6.2
    -20.621088    -1.205551    -0.708218    -0.468675     0.195121     0.317224


 HOMO      4.2    -0.468675 =     -12.7533eV
 LUMO      6.1     0.189757 =       5.1635eV
 LUMO-HOMO         0.658432 =      17.9169eV

 Orbitals saved in record  2100.2


 **********************************************************************************************************************************
 DATASETS  * FILE   NREC   LENGTH (MB)   RECORD NAMES
              1      19       29.27       500      610      700      900      950      970     1000      129      960     1100   
                                          VAR    BASINP    GEOM    SYMINP    ZMAT    AOBASIS   BASIS     P2S    ABASIS      S 
                                         1400     1410     1200     1210     1080     1600     1650     1300     1700   
                                           T        V       H0       H01     AOSYM     SMH    MOLCAS    ERIS     OPER   

              2       4        0.44       700     1000      520     2100   
                                         GEOM     BASIS   MCVARS     RHF  

 PROGRAMS   *        TOTAL    HF-SCF       INT
 CPU TIMES  *         0.30      0.01      0.20
 REAL TIME  *         0.80 SEC
 DISK USED  *        34.11 MB
 **********************************************************************************************************************************


 PROGRAM * CCSD (Closed-shell coupled cluster)     Authors: C. Hampel, H.-J. Werner, 1991, M. Deegan, P.J. Knowles, 1992


 CORETYPE=SMALL

 Convergence thresholds:  THRVAR = 1.00D-08  THRDEN = 1.00D-06

 Number of closed-shell orbitals:   9 (   5   4 )
 Number of external orbitals:      29 (  14  15 )

 Molecular orbitals read from record     2100.2  Type=RHF/CANONICAL  

 Number of N-1 electron functions:               9
 Number of N-2 electron functions:              45
 Number of singly external CSFs:               130
 Number of doubly external CSFs:             17161
 Total number of CSFs:                       17292

 Length of J-op  integral file:               0.00 MB
 Length of K-op  integral file:               0.11 MB
 Length of 3-ext integral record:             0.00 MB

 Integral transformation finished. Total CPU:   0.00 sec, npass=  1  Memory used:   0.21 MW

 Reference energy:                   -150.78536885

 MP2 singlet pair energy:              -0.23949472
 MP2 triplet pair energy:              -0.14958002
 MP2 correlation energy:               -0.38907474
 MP2 total energy:                   -151.17444359

 SCS-MP2 correlation energy:           -0.38046568   (PS=  1.200000  PT=  0.333333)
 SCS-MP2 total energy:               -151.16583453

 ITER.      SQ.NORM     CORR.ENERGY   TOTAL ENERGY   ENERGY CHANGE        DEN1      VAR(S)    VAR(P)  DIIS     TIME  TIME/IT
   1      1.10413588    -0.40063634  -151.18600519    -0.01156160    -0.00227882  0.11D-02  0.18D-02  1  1     0.42     0.01
   2      1.11215612    -0.40258428  -151.18795312    -0.00194794    -0.00897954  0.23D-04  0.26D-03  2  2     0.43     0.01
   3      1.11524075    -0.40277288  -151.18814173    -0.00018860    -0.00196626  0.99D-05  0.14D-04  3  3     0.44     0.01
   4      1.11620156    -0.40280949  -151.18817834    -0.00003661    -0.00043842  0.10D-05  0.13D-05  4  4     0.45     0.01
   5      1.11642361    -0.40280680  -151.18817564     0.00000270    -0.00006351  0.30D-06  0.11D-06  5  5     0.46     0.01
   6      1.11647162    -0.40280556  -151.18817441     0.00000124    -0.00000409  0.40D-07  0.15D-07  6  6     0.47     0.01
   7      1.11648570    -0.40280563  -151.18817448    -0.00000007    -0.00000117  0.71D-08  0.24D-08  6  1     0.48     0.01
   8      1.11648809    -0.40280551  -151.18817436     0.00000012     0.00000114  0.19D-08  0.42D-09  6  2     0.49     0.01

 Norm of t1 vector:      0.04811674      S-energy:    -0.00000036      T1 diagnostic:  0.00801946
                                                                       D1 diagnostic:  0.02132843
                                                                       D2 diagnostic:  0.17235058 (external, symmetry=2)

 Doubles amplitudes (print threshold =  0.500E-01):

         I         J         SYM. A    SYM. B    A         B      T(IJ, AB)

         4         4         2         2         2         2     -0.05456736


 RESULTS
 =======

  Reference energy                   -150.785368846926

  Correlated core orbitals:             1.1       1.2
  Orbital energies:                   -20.6214  -20.6211

  CCSD core-core energy                -0.000732681741
  CCSD core-valence energy             -0.003487545650
  CCSD valence correlation energy      -0.398585285717

  CCSD singlet pair energy             -0.272586225161
  CCSD triplet pair energy             -0.130218929958
  CCSD correlation energy              -0.402805513107

 !CCSD total energy                  -151.188174360032

 Timing summary (sec):

 STEP                 CPU(USER)    SYS     CPU(TOT)    WALL
 CCSD iterations         0.50      0.02      0.52      0.10

 Program statistics:

 Available memory in ccsd:              3145727671
 Min. memory needed in ccsd:                 60995
 Max. memory used in ccsd:                   73552
 Max. memory used in cckext:                110158 ( 8 integral passes)



 **********************************************************************************************************************************
 DATASETS  * FILE   NREC   LENGTH (MB)   RECORD NAMES
              1      20       30.09       500      610      700      900      950      970     1000      129      960     1100   
                                          VAR    BASINP    GEOM    SYMINP    ZMAT    AOBASIS   BASIS     P2S    ABASIS      S 
                                         1400     1410     1200     1210     1080     1600     1650     1300     1700     1380   
                                           T        V       H0       H01     AOSYM     SMH    MOLCAS    ERIS     OPER     JKOP   

              2       4        0.44       700     1000      520     2100   
                                         GEOM     BASIS   MCVARS     RHF  

 PROGRAMS   *        TOTAL      CCSD    HF-SCF       INT
 CPU TIMES  *         0.41      0.11      0.01      0.20
 REAL TIME  *         0.93 SEC
 DISK USED  *        34.11 MB
 **********************************************************************************************************************************

 Dump information in style XML to xml output                                                                      

 Orbitals will not be exported.

 **********************************************************************************************************************************

 CCSD/cc-pVDZ energy=   -151.188174360032

            CCSD          HF-SCF
   -151.18817436   -150.78536885
 **********************************************************************************************************************************
 Molpro calculation terminated
