
 Working directory              : /var/folders/2v/xbgp75_9785319ghcgb4zr4r0000gr/T//molpro.HwOwzu5Z6g/
 Global scratch directory       : /var/folders/2v/xbgp75_9785319ghcgb4zr4r0000gr/T//molpro.HwOwzu5Z6g/
 Wavefunction directory         : /Users/peterk/wfu/
 Main file repository           : /var/folders/2v/xbgp75_9785319ghcgb4zr4r0000gr/T//molpro.HwOwzu5Z6g/

 id        : peterk

 Nodes        nprocs
 pjk2022.local    1
 GA implementation: MPI file
 GA implementation (serial work in mppx): MPI file

 Using customized tuning parameters: mindgm=1; mindgv=20; mindgc=4; mindgr=1; noblas=0; minvec=7
 default implementation of scratch files=df  


 Variables initialized (1037), CPU time= 0.01 sec
 
 
 
 geometry={
 16
  C    -1.4595330   -1.1910594    0.1600327
  C    -2.8488073   -0.9628516    0.0993153
  C    -3.1539559    0.3260872   -0.2060017
  S    -1.7497644    1.2592017   -0.4444530
  C    -0.7185117   -0.0716168   -0.1000887
  C     0.7185117    0.0716168   -0.1000887
  S     1.7497644   -1.2592017   -0.4444530
  C     3.1539559   -0.3260872   -0.2060017
  C     2.8488073    0.9628516    0.0993153
  C     1.4595330    1.1910594    0.1600327
  H    -1.0099655   -2.1339875    0.4228504
  H    -3.5907346   -1.7189217    0.2898715
  H    -4.1235319    0.7747989   -0.3122418
  H     4.1235319   -0.7747989   -0.3122418
  H     3.5907346    1.7189217    0.2898715
  H     1.0099655    2.1339875    0.4228504
 }
 basis=cc-pVDZ
 core,small
 
 
 hf; papt;mp3
 
 
 
 {put,xml;noorbitals,nobasis}
 Commands initialized (841), CPU time= 0.00 sec, 716 directives.
 Default parameters read. Elapsed time= 0.05 sec

 Checking input...
 Passed
1


                                         ***  PROGRAM SYSTEM MOLPRO  ***
                                       Copyright, TTI GmbH Stuttgart, 2015
                                    Version 2023.1 linked Sat Jul 22 07:59:25 2023


 **********************************************************************************************************************************
 LABEL *                                                                                                                                                                 
  64 bit serial version                                                                  DATE: 01-Aug-23          TIME: 22:15:33  
 **********************************************************************************************************************************

 SHA1:             401d111a1dbfa49388eacdf0424f85138b2d30d0
 **********************************************************************************************************************************

 Memory per process:      3146 MW
 Total memory per node:   4194 MW
 Total GA space:          1049 MW

 GA preallocation disabled
 GA check enabled

 Geometry recognized as XYZ


 Variable memory set to 3145.7 MW

 SETTING BASIS          =    CC-PVDZ


 Recomputing integrals since basis changed


 Using spherical harmonics

 Library entry C      S cc-pVDZ              selected for orbital group  1
 Library entry C      P cc-pVDZ              selected for orbital group  1
 Library entry C      D cc-pVDZ              selected for orbital group  1
 Library entry S      S cc-pVDZ              selected for orbital group  2
 Library entry S      P cc-pVDZ              selected for orbital group  2
 Library entry S      D cc-pVDZ              selected for orbital group  2
 Library entry H      S cc-pVDZ              selected for orbital group  4
 Library entry H      P cc-pVDZ              selected for orbital group  4


 PROGRAM * SEWARD (Integral evaluation for generally contracted gaussian basis sets)     Author: Roland Lindh, 1990

 Geometry written to block  1 of record 700


 Point group  C2  



 ATOMIC COORDINATES

 NR  ATOM    CHARGE       X              Y              Z

   1  C       6.00   -2.758117640   -2.250776064    0.302417974
   2  C       6.00    2.758117640    2.250776064    0.302417974
   3  C       6.00   -5.383465579   -1.819525823    0.187678717
   4  C       6.00    5.383465579    1.819525823    0.187678717
   5  C       6.00   -5.960112860    0.616215501   -0.389286794
   6  C       6.00    5.960112860   -0.616215501   -0.389286794
   7  S      16.00   -3.306575499    2.379546349   -0.839894445
   8  S      16.00    3.306575499   -2.379546349   -0.839894445
   9  C       6.00   -1.357790330   -0.135336138   -0.189140231
  10  C       6.00    1.357790330    0.135336138   -0.189140231
  11  H       1.00   -1.908558190   -4.032651928    0.799071448
  12  H       1.00    1.908558190    4.032651928    0.799071448
  13  H       1.00   -6.785504980   -3.248291243    0.547777746
  14  H       1.00    6.785504980    3.248291243    0.547777746
  15  H       1.00   -7.792345957    1.464157723   -0.590051487
  16  H       1.00    7.792345957   -1.464157723   -0.590051487

 Bond lengths in Bohr (Angstrom)

  1- 3  2.663004632   1- 9  2.584111477   1-11  2.035558284   2- 4  2.663004632   2-10  2.584111477
       ( 1.409201364)       ( 1.367452904)       ( 1.077171055)       ( 1.409201364)       ( 1.367452904)

  2-12  2.035558284   3- 5  2.568705332   3-13  2.033901772   4- 6  2.568705332   4-14  2.033901772
       ( 1.077171055)       ( 1.359300323)       ( 1.076294467)       ( 1.359300323)       ( 1.076294467)

  5- 7  3.217707796   5-15  2.028889005   6- 8  3.217707796   6-16  2.028889005   7- 9  3.247441855
       ( 1.702737637)       ( 1.073641825)       ( 1.702737637)       ( 1.073641825)       ( 1.718472223)

  8-10  3.247441855   9-10  2.729036791
       ( 1.718472223)       ( 1.444144077)

 Bond angles

  1- 3- 5  112.61589754   1- 3-13  123.93134747   1- 9- 7  110.29731696   1- 9-10  128.34688330

  2- 4- 6  112.61589754   2- 4-14  123.93134747   2-10- 8  110.29731696   2-10- 9  128.34688330

  3- 1- 9  113.17056137   3- 1-11  124.31411267   3- 5- 7  111.46714242   3- 5-15  128.40798942

  4- 2-10  113.17056137   4- 2-12  124.31411267   4- 6- 8  111.46714242   4- 6-16  128.40798942

  5- 3-13  123.44470076   5- 7- 9   92.43181715   6- 4-14  123.44470076   6- 8-10   92.43181715

  7- 5-15  120.12213301   7- 9-10  121.35444924   8- 6-16  120.12213301   8-10- 9  121.35444924

  9- 1-11  122.46990442  10- 2-12  122.46990442

 NUCLEAR CHARGE:                   86
 NUMBER OF PRIMITIVE AOS:         342
 NUMBER OF SYMMETRY AOS:          332
 NUMBER OF CONTRACTIONS:          178   (   89A   +   89B   )
 NUMBER OF INNER CORE ORBITALS:     2   (    1A   +    1B   )
 NUMBER OF OUTER CORE ORBITALS:    16   (    8A   +    8B   )
 NUMBER OF VALENCE ORBITALS:       46   (   23A   +   23B   )


 NUCLEAR REPULSION ENERGY  637.31599080

 Eigenvalues of metric

         1 0.474E-03 0.227E-02 0.291E-02 0.412E-02 0.105E-01 0.165E-01 0.186E-01 0.201E-01
         2 0.713E-03 0.883E-03 0.254E-02 0.412E-02 0.509E-02 0.120E-01 0.174E-01 0.194E-01


 Contracted 2-electron integrals neglected if value below      1.0D-11
 AO integral compression algorithm  1   Integral accuracy      1.0D-11

     303.563 MB (compressed) written to integral file ( 51.0%)


 NUMBER OF SORTED TWO-ELECTRON INTEGRALS:   64164105.     BUFFER LENGTH:  32768
 NUMBER OF SEGMENTS:   5  SEGMENT LENGTH:   15996036      RECORD LENGTH: 524288

 Memory used in sort:      16.55 MW

 SORT1 READ    74411824. AND WROTE    63687438. INTEGRALS IN    185 RECORDS. CPU TIME:     0.58 SEC, REAL TIME:     0.72 SEC
 SORT2 READ    63687438. AND WROTE    64164105. INTEGRALS IN   1158 RECORDS. CPU TIME:     0.46 SEC, REAL TIME:     0.57 SEC

 FILE SIZES:   FILE 1:   334.6 MBYTE,  FILE 4:   776.0 MBYTE,   TOTAL:   1110.6 MBYTE

 OPERATOR DM      FOR CENTER  0  COORDINATES:    0.000000    0.000000    0.000000


 **********************************************************************************************************************************
 DATASETS  * FILE   NREC   LENGTH (MB)   RECORD NAMES
              1      19      287.04       500      610      700      900      950      970     1000      129      960     1100   
                                          VAR    BASINP    GEOM    SYMINP    ZMAT    AOBASIS   BASIS     P2S    ABASIS      S 
                                         1400     1410     1200     1210     1080     1600     1650     1300     1700   
                                           T        V       H0       H01     AOSYM     SMH    MOLCAS    ERIS     OPER   

 PROGRAMS   *        TOTAL       INT
 CPU TIMES  *         4.99      4.90
 REAL TIME  *         5.83 SEC
 DISK USED  *         1.03 GB
 **********************************************************************************************************************************


 Program * Restricted Hartree-Fock

 Orbital guess generated from atomic densities. Full valence occupancy:   32  32

 Initial occupancy:  22  21

 NELEC=   86   SYM=1   MS2= 0   THRE=1.0D-08   THRD=3.2D-06   THRG=3.2D-06  HFMA2=F  DIIS_START=2   DIIS_MAX=10   DIIS_INCORE=F

 Level shifts:    0.00 (CLOSED)    0.00 (OPEN)    0.30 (GAP_MIN)

 ITER           ETOT              DE          GRAD        DDIFF     DIIS  NEXP   TIME(IT)  TIME(TOT)  DIAG
   1    -1101.37220307   -1101.37220307     0.00D+00     0.14D+00     0     0       0.15      0.28    start
   2    -1101.46211738      -0.08991431     0.49D-02     0.13D-01     1     0       0.16      0.44    diag
   3    -1101.48412794      -0.02201056     0.26D-02     0.56D-02     2     0       0.16      0.60    diag
   4    -1101.48747904      -0.00335109     0.73D-03     0.22D-02     3     0       0.15      0.75    diag
   5    -1101.48779775      -0.00031871     0.23D-03     0.53D-03     4     0       0.16      0.91    diag
   6    -1101.48791633      -0.00011858     0.11D-03     0.32D-03     5     0       0.15      1.06    diag
   7    -1101.48794819      -0.00003187     0.46D-04     0.20D-03     6     0       0.15      1.21    diag
   8    -1101.48795172      -0.00000352     0.16D-04     0.72D-04     7     0       0.15      1.36    fixocc
   9    -1101.48795191      -0.00000019     0.46D-05     0.18D-04     8     0       0.16      1.52    diag
  10    -1101.48795192      -0.00000001     0.12D-05     0.40D-05     9     0       0.16      1.68    diag/orth
  11    -1101.48795192      -0.00000000     0.49D-06     0.16D-05     9     0       0.15      1.83    diag
  12    -1101.48795192      -0.00000000     0.16D-06     0.41D-06     0     0       0.15      1.98    diag

 Final occupancy:  22  21

 !RHF STATE 1.1 Energy              -1101.487951922314
  RHF One-electron energy           -2779.855261244238
  RHF Two-electron energy            1041.051318526503
  RHF Kinetic energy                 1101.766198472115
  RHF Nuclear energy                  637.315990795421
  RHF Virial quotient                  -0.999747454088

 !RHF STATE 1.1 Dipole moment           0.00000000     0.00000000     0.15849117
 Dipole moment /Debye                   0.00000000     0.00000000     0.40284438

 Orbital energies:

           1.1          2.1          3.1          4.1          5.1          6.1          7.1          8.1          9.1         10.1
    -91.980752   -11.276745   -11.264477   -11.242020   -11.240694    -8.985705    -6.667300    -6.666278    -6.664323    -1.202043

          11.1         12.1         13.1         14.1         15.1         16.1         17.1         18.1         19.1         20.1
     -1.039939    -0.986693    -0.810373    -0.745898    -0.707512    -0.574273    -0.557656    -0.545984    -0.512556    -0.466502

          21.1         22.1         23.1         24.1
     -0.373617    -0.347241     0.084451     0.188423

           1.2          2.2          3.2          4.2          5.2          6.2          7.2          8.2          9.2         10.2
    -91.980752   -11.275901   -11.264477   -11.242020   -11.240694    -8.985704    -6.667300    -6.666278    -6.664323    -1.172893

          11.2         12.2         13.2         14.2         15.2         16.2         17.2         18.2         19.2         20.2
     -1.001289    -0.954547    -0.779988    -0.718612    -0.646111    -0.570100    -0.555284    -0.514057    -0.481429    -0.351190

          21.2         22.2         23.2
     -0.284772     0.157222     0.183854


 HOMO     21.2    -0.284772 =      -7.7490eV
 LUMO     23.1     0.084451 =       2.2980eV
 LUMO-HOMO         0.369223 =      10.0471eV

 Orbitals saved in record  2100.2


 **********************************************************************************************************************************
 DATASETS  * FILE   NREC   LENGTH (MB)   RECORD NAMES
              1      19      287.04       500      610      700      900      950      970     1000      129      960     1100   
                                          VAR    BASINP    GEOM    SYMINP    ZMAT    AOBASIS   BASIS     P2S    ABASIS      S 
                                         1400     1410     1200     1210     1080     1600     1650     1300     1700   
                                           T        V       H0       H01     AOSYM     SMH    MOLCAS    ERIS     OPER   

              2       4        0.90       700     1000      520     2100   
                                         GEOM     BASIS   MCVARS     RHF  

 PROGRAMS   *        TOTAL    HF-SCF       INT
 CPU TIMES  *         6.97      1.98      4.90
 REAL TIME  *         8.16 SEC
 DISK USED  *         1.03 GB
 **********************************************************************************************************************************


 PROGRAM * PAPT (Closed-shell)     Authors: C. Hampel, H.-J. Werner, 1991, P.J. Knowles, 2021


 CORETYPE=SMALL

 Convergence thresholds:  THRVAR = 1.00D-08  THRDEN = 1.00D-06

 Number of core orbitals:           2 (   1   1 )
 Number of closed-shell orbitals:  41 (  21  20 )
 Number of external orbitals:     135 (  67  68 )

 Molecular orbitals read from record     2100.2  Type=RHF/CANONICAL  

 Checking core orbitals using projection, core_type=SMALL
 Threshold for active space selection:  0.30


 Number of target functions:              2   (   1   1 )

 Number of N-1 electron functions:              41
 Number of N-2 electron functions:             861
 Number of singly external CSFs:              2767
 Number of doubly external CSFs:           7661824
 Total number of CSFs:                     7664592

 Length of J-op  integral file:               0.00 MB
 Length of K-op  integral file:               1.15 MB

 Integral transformation finished. Total CPU:   2.03 sec, npass=  1  Memory used:  15.69 MW

 Reference energy:                  -1101.48795192

                        CORR.ENERGY   TOTAL ENERGY   ENERGY CHANGE
 MP2:                   -1.34906460 -1102.83701652    -1.34906460

 SCS-MP2 correlation energy:           -1.29684399   (PS=  1.200000  PT=  0.333333)
 SCS-MP2 total energy:              -1102.78479591
 Iteration:   1     0.2680D+00
 Iteration:   2     0.3225D+00
 Iteration:   3     0.1468D+00
 Iteration:   4     0.9610D-01
 Iteration:   5     0.6266D-01
 Iteration:   6     0.2778D-01
 Iteration:   7     0.3386D-01
 Iteration:   8     0.1575D-01
 Iteration:   9     0.8215D-02
 Iteration:  10     0.1991D-01
 Iteration:  11     0.1201D-02
 Iteration:  12     0.2754D-02
 Iteration:  13     0.3818D-03
 Iteration:  14     0.6798D-03
 Iteration:  15     0.1660D-03
 Iteration:  16     0.1663D-03
 Iteration:  17     0.6889D-04
 PAPT operator written to  7000.1
 PAPT orbitals and eigenvalues written to  7000.2

 MP3(D):                -1.38427626 -1102.87222818    -0.03521166



 RESULTS
 =======

  Reference energy                  -1101.487951922313

  Correlated core orbitals:             2.1       3.1       4.1       5.1       6.1       7.1       8.1       9.1       2.2       3.2
                                        4.2       5.2       6.2       7.2       8.2       9.2
  Orbital energies:                   -11.2767  -11.2645  -11.2420  -11.2407   -8.9857   -6.6673   -6.6663   -6.6643  -11.2759  -11.2645
                                      -11.2420  -11.2407   -8.9857   -6.6673   -6.6663   -6.6643

  MP3 core-core energy                 -0.013357428241
  MP3 core-valence energy              -0.021446141855
  MP3 valence correlation energy       -1.349472688874

  MP3 singlet pair energy              -0.874954823531
  MP3 triplet pair energy              -0.509321435438
  MP3 correlation energy               -1.384276258970

 !MP3 total energy                  -1102.872228181282

 Timing summary (sec):

 STEP                 CPU(USER)    SYS     CPU(TOT)    WALL
 Transformation          2.17      0.13      2.30      2.31
 CCSD iterations        47.35      0.25     47.60     40.24

 Program statistics:

 Available memory in ccsd:              3145721254
 Min. memory needed in ccsd:              19638784
 Max. memory used in ccsd:                26837902
 Max. memory used in cckext:              28176008 ( 1 integral passes)



 **********************************************************************************************************************************
 DATASETS  * FILE   NREC   LENGTH (MB)   RECORD NAMES
              1      21      443.76       500      610      700      900      950      970     1000      129      960     1100   
                                          VAR    BASINP    GEOM    SYMINP    ZMAT    AOBASIS   BASIS     P2S    ABASIS      S 
                                         1400     1410     1200     1210     1080     1600     1650     1300     1700     1380   
                                           T        V       H0       H01     AOSYM     SMH    MOLCAS    ERIS     OPER     JKOP   
                                         7000   
                                        PAPT AO    

              2       5        1.36       700     1000      520     2100     7000   
                                         GEOM     BASIS   MCVARS     RHF     PAPT   

 PROGRAMS   *        TOTAL      PAPT    HF-SCF       INT
 CPU TIMES  *        49.44     42.47      1.98      4.90
 REAL TIME  *        50.75 SEC
 DISK USED  *         1.03 GB
 **********************************************************************************************************************************


 PROGRAM * MP3 (Closed-shell)     Authors: C. Hampel, H.-J. Werner, 1991, M. Deegan, P.J. Knowles, 1992


 CORETYPE=SMALL

 Convergence thresholds:  THRVAR = 1.00D-08  THRDEN = 1.00D-06

 Number of core orbitals:           2 (   1   1 )
 Number of closed-shell orbitals:  41 (  21  20 )
 Number of external orbitals:     135 (  67  68 )

 Molecular orbitals read from record     7000.2  Type=PAPT/CANONICAL (state 1.1)

 Checking core orbitals using projection, core_type=SMALL
 Threshold for active space selection:  0.30


 Number of target functions:              2   (   1   1 )

 Number of N-1 electron functions:              41
 Number of N-2 electron functions:             861
 Number of singly external CSFs:              2767
 Number of doubly external CSFs:           7661824
 Total number of CSFs:                     7664592

 Length of J-op  integral file:               0.00 MB
 Length of K-op  integral file:               1.15 MB

 Integral transformation finished. Total CPU:   2.43 sec, npass=  1  Memory used:  15.69 MW
 Orbital energies read from record       7000.2  Type=PAPT/CANONICAL (state 1.1)

 Reference energy:                  -1101.48795192

                        CORR.ENERGY   TOTAL ENERGY   ENERGY CHANGE
 MP2:                   -1.39770848 -1102.88566040    -1.39770848

 SCS-MP2 correlation energy:           -1.35333169   (PS=  1.200000  PT=  0.333333)
 SCS-MP2 total energy:              -1102.84128361

 MP3(D):                -1.39852864 -1102.88648056    -0.00082016



 RESULTS
 =======

  Reference energy                  -1101.487951922313

  Correlated core orbitals:             2.1       3.1       4.1       5.1       6.1       7.1       8.1       9.1       2.2       3.2
                                        4.2       5.2       6.2       7.2       8.2       9.2
  Orbital energies:                   -11.5006  -11.4243  -11.3699  -11.3270   -9.4674   -7.0001   -7.0643   -7.1474  -11.4531  -11.4238
                                      -11.3600  -11.3218   -9.4666   -7.0001   -7.0641   -7.1482

  MP3 core-core energy                 -0.013336737155
  MP3 core-valence energy              -0.021189417186
  MP3 valence correlation energy       -1.364002484924

  MP3 singlet pair energy              -0.888062705349
  MP3 triplet pair energy              -0.510465933917
  MP3 correlation energy               -1.398528639266

 !MP3 total energy                  -1102.886480561579

 Timing summary (sec):

 STEP                 CPU(USER)    SYS     CPU(TOT)    WALL
 Transformation          2.78      0.27      3.05      3.12
 CCSD iterations        63.59      0.18     63.77     13.88

 Program statistics:

 Available memory in ccsd:              3145721254
 Min. memory needed in ccsd:              19638784
 Max. memory used in ccsd:                26837902
 Max. memory used in cckext:              28176008 ( 1 integral passes)



 **********************************************************************************************************************************
 DATASETS  * FILE   NREC   LENGTH (MB)   RECORD NAMES
              1      21      443.76       500      610      700      900      950      970     1000      129      960     1100   
                                          VAR    BASINP    GEOM    SYMINP    ZMAT    AOBASIS   BASIS     P2S    ABASIS      S 
                                         1400     1410     1200     1210     1080     1600     1650     1300     1700     1380   
                                           T        V       H0       H01     AOSYM     SMH    MOLCAS    ERIS     OPER     JKOP   
                                         7000   
                                        PAPT AO    

              2       5        1.36       700     1000      520     2100     7000   
                                         GEOM     BASIS   MCVARS     RHF     PAPT   

 PROGRAMS   *        TOTAL       MP3      PAPT    HF-SCF       INT
 CPU TIMES  *        66.29     16.85     42.47      1.98      4.90
 REAL TIME  *        67.81 SEC
 DISK USED  *         1.03 GB
 **********************************************************************************************************************************

 Dump information in style XML to xml output                                                                      

 Orbitals will not be exported.

 **********************************************************************************************************************************

 MP3/cc-pVDZ energy=  -1102.886480561579

             MP3            PAPT          HF-SCF
  -1102.88648056  -1102.87222818  -1101.48795192
 **********************************************************************************************************************************
 Molpro calculation terminated
