
 Working directory              : /var/folders/2v/xbgp75_9785319ghcgb4zr4r0000gr/T//molpro.hYgQQwUkF2/
 Global scratch directory       : /var/folders/2v/xbgp75_9785319ghcgb4zr4r0000gr/T//molpro.hYgQQwUkF2/
 Wavefunction directory         : /Users/peterk/wfu/
 Main file repository           : /var/folders/2v/xbgp75_9785319ghcgb4zr4r0000gr/T//molpro.hYgQQwUkF2/

 id        : peterk

 Nodes        nprocs
 pjk2022.local    1
 GA implementation: MPI file
 GA implementation (serial work in mppx): MPI file

 Using customized tuning parameters: mindgm=1; mindgv=20; mindgc=4; mindgr=1; noblas=0; minvec=7
 default implementation of scratch files=df  


 Variables initialized (1037), CPU time= 0.00 sec
 
 
 
 geometry={
 7
    C   -0.02390885627557     -0.05302641663315     -0.10745866578343
    N   0.00092066825824      0.00365468344940      1.44477708016972
    H   0.94208618779814     -0.01259041963198      1.82514474753541
    H   -0.46202504306172      0.82039651080639      1.83220555804372
    H   -0.47773812151175     -0.80605899270518      1.81564860500214
    H   -0.49462389264234      0.88965947573447     -0.38874381678550
    H   1.02864905743500      0.04713015898005     -0.37957750818206
 }
 basis=cc-pVDZ
 core,small
 
 
 hf; papt;mp4
 
 
 
 {put,xml;noorbitals,nobasis}
 Commands initialized (841), CPU time= 0.00 sec, 716 directives.
 Default parameters read. Elapsed time= 0.07 sec

 Checking input...
 Passed
1


                                         ***  PROGRAM SYSTEM MOLPRO  ***
                                       Copyright, TTI GmbH Stuttgart, 2015
                                    Version 2023.1 linked Sat Jul 22 07:59:25 2023


 **********************************************************************************************************************************
 LABEL *                                                                                                                                                                 
  64 bit serial version                                                                  DATE: 01-Aug-23          TIME: 23:07:11  
 **********************************************************************************************************************************

 SHA1:             401d111a1dbfa49388eacdf0424f85138b2d30d0
 **********************************************************************************************************************************

 Memory per process:      3146 MW
 Total memory per node:   4194 MW
 Total GA space:          1049 MW

 GA preallocation disabled
 GA check enabled

 Geometry recognized as XYZ


 Variable memory set to 3145.7 MW

 SETTING BASIS          =    CC-PVDZ


 Recomputing integrals since basis changed


 Using spherical harmonics

 Library entry C      S cc-pVDZ              selected for orbital group  1
 Library entry C      P cc-pVDZ              selected for orbital group  1
 Library entry C      D cc-pVDZ              selected for orbital group  1
 Library entry N      S cc-pVDZ              selected for orbital group  2
 Library entry N      P cc-pVDZ              selected for orbital group  2
 Library entry N      D cc-pVDZ              selected for orbital group  2
 Library entry H      S cc-pVDZ              selected for orbital group  3
 Library entry H      P cc-pVDZ              selected for orbital group  3


 PROGRAM * SEWARD (Integral evaluation for generally contracted gaussian basis sets)     Author: Roland Lindh, 1990

 Geometry written to block  1 of record 700


 Point group  C1  



 ATOMIC COORDINATES

 NR  ATOM    CHARGE       X              Y              Z

   1  C       6.00   -0.045181190   -0.100205405   -0.203067448
   2  N       7.00    0.001739811    0.006906351    2.730232993
   3  H       1.00    1.780284881   -0.023792445    3.449023711
   4  H       1.00   -0.873100794    1.550324719    3.462366709
   5  H       1.00   -0.902794209   -1.523230737    3.431078602
   6  H       1.00   -0.934703692    1.681212753   -0.734619346
   7  H       1.00    1.943864997    0.089063093   -0.717297534

 Bond lengths in Bohr (Angstrom)

 1-2  2.935630424  1-6  2.060885333  1-7  2.063143204  2-3  1.918547648  2-4  1.919246238
     ( 1.553468720)     ( 1.090573552)     ( 1.091768366)     ( 1.015251693)     ( 1.015621371)

 2-5  1.910676809
     ( 1.011086625)

 Bond angles

  1-2-3  112.86675045   1-2-4  113.77981822   1-2-5  109.25221902   2-1-6  103.47841796

  2-1-7  103.31424331   3-2-4  107.00834166   3-2-5  106.77565637   4-2-5  106.75608785

  6-1-7  105.81521240

 NUCLEAR CHARGE:                   18
 NUMBER OF PRIMITIVE AOS:          89
 NUMBER OF SYMMETRY AOS:           87
 NUMBER OF CONTRACTIONS:           53   (   53A   )
 NUMBER OF INNER CORE ORBITALS:     0   (    0A   )
 NUMBER OF OUTER CORE ORBITALS:     2   (    2A   )
 NUMBER OF VALENCE ORBITALS:       13   (   13A   )


 NUCLEAR REPULSION ENERGY   41.57132300

 Eigenvalues of metric

         1 0.716E-02 0.170E-01 0.301E-01 0.337E-01 0.361E-01 0.382E-01 0.447E-01 0.499E-01


 Contracted 2-electron integrals neglected if value below      1.0D-11
 AO integral compression algorithm  1   Integral accuracy      1.0D-11

     5.767 MB (compressed) written to integral file ( 59.1%)


 NUMBER OF SORTED TWO-ELECTRON INTEGRALS:    1024596.     BUFFER LENGTH:  32768
 NUMBER OF SEGMENTS:   1  SEGMENT LENGTH:    1024596      RECORD LENGTH: 524288

 Memory used in sort:       1.58 MW

 SORT1 READ     1206537. AND WROTE     1014575. INTEGRALS IN      3 RECORDS. CPU TIME:     0.01 SEC, REAL TIME:     0.02 SEC
 SORT2 READ     1014575. AND WROTE     1024596. INTEGRALS IN     22 RECORDS. CPU TIME:     0.03 SEC, REAL TIME:     0.04 SEC

 FILE SIZES:   FILE 1:    36.0 MBYTE,  FILE 4:    12.6 MBYTE,   TOTAL:     48.6 MBYTE

 OPERATOR DM      FOR CENTER  0  COORDINATES:    0.000000    0.000000    0.000000


 **********************************************************************************************************************************
 DATASETS  * FILE   NREC   LENGTH (MB)   RECORD NAMES
              1      19       33.32       500      610      700      900      950      970     1000      129      960     1100   
                                          VAR    BASINP    GEOM    SYMINP    ZMAT    AOBASIS   BASIS     P2S    ABASIS      S 
                                         1400     1410     1200     1210     1080     1600     1650     1300     1700   
                                           T        V       H0       H01     AOSYM     SMH    MOLCAS    ERIS     OPER   

 PROGRAMS   *        TOTAL       INT
 CPU TIMES  *         0.38      0.28
 REAL TIME  *         1.09 SEC
 DISK USED  *        46.78 MB
 **********************************************************************************************************************************


 Program * Restricted Hartree-Fock

 Orbital guess generated from atomic densities. Full valence occupancy:   15

 Initial occupancy:   9

 NELEC=   18   SYM=1   MS2= 0   THRE=1.0D-08   THRD=3.2D-06   THRG=3.2D-06  HFMA2=F  DIIS_START=2   DIIS_MAX=10   DIIS_INCORE=F

 Level shifts:    0.00 (CLOSED)    0.00 (OPEN)    0.30 (GAP_MIN)

 ITER           ETOT              DE          GRAD        DDIFF     DIIS  NEXP   TIME(IT)  TIME(TOT)  DIAG
   1      -95.03431182     -95.03431182     0.00D+00     0.14D+00     0     0       0.00      0.01    start
   2      -95.09705300      -0.06274118     0.12D-01     0.24D-01     1     0       0.01      0.02    diag
   3      -95.10734136      -0.01028836     0.51D-02     0.86D-02     2     0       0.00      0.02    diag
   4      -95.10819791      -0.00085655     0.10D-02     0.23D-02     3     0       0.01      0.03    diag
   5      -95.10828999      -0.00009208     0.32D-03     0.71D-03     4     0       0.00      0.03    diag
   6      -95.10830446      -0.00001447     0.12D-03     0.32D-03     5     0       0.01      0.04    diag
   7      -95.10830648      -0.00000202     0.37D-04     0.12D-03     6     0       0.00      0.04    diag
   8      -95.10830670      -0.00000022     0.10D-04     0.39D-04     7     0       0.01      0.05    fixocc
   9      -95.10830672      -0.00000002     0.28D-05     0.11D-04     8     0       0.00      0.05    diag
  10      -95.10830672      -0.00000000     0.67D-06     0.29D-05     9     0       0.01      0.06    diag/orth
  11      -95.10830672      -0.00000000     0.13D-06     0.40D-06     0     0       0.00      0.06    diag

 Final occupancy:   9

 !RHF STATE 1.1 Energy                -95.108306718677
  RHF One-electron energy            -210.046729294581
  RHF Two-electron energy              73.367099577105
  RHF Kinetic energy                   95.049410627911
  RHF Nuclear energy                   41.571322998799
  RHF Virial quotient                  -1.000619636570

 !RHF STATE 1.1 Dipole moment           0.29566492     0.54647391     2.20519530
 Dipole moment /Debye                   0.75150526     1.38899812     5.60504738

 Orbital energies:

           1.1          2.1          3.1          4.1          5.1          6.1          7.1          8.1          9.1         10.1
    -15.664494   -11.151435    -1.266431    -0.844744    -0.734327    -0.727670    -0.552337    -0.461581    -0.253248     0.139571

          11.1
      0.204328


 HOMO      9.1    -0.253248 =      -6.8912eV
 LUMO     10.1     0.139571 =       3.7979eV
 LUMO-HOMO         0.392818 =      10.6891eV

 Orbitals saved in record  2100.2


 **********************************************************************************************************************************
 DATASETS  * FILE   NREC   LENGTH (MB)   RECORD NAMES
              1      19       33.32       500      610      700      900      950      970     1000      129      960     1100   
                                          VAR    BASINP    GEOM    SYMINP    ZMAT    AOBASIS   BASIS     P2S    ABASIS      S 
                                         1400     1410     1200     1210     1080     1600     1650     1300     1700   
                                           T        V       H0       H01     AOSYM     SMH    MOLCAS    ERIS     OPER   

              2       4        0.52       700     1000      520     2100   
                                         GEOM     BASIS   MCVARS     RHF  

 PROGRAMS   *        TOTAL    HF-SCF       INT
 CPU TIMES  *         0.44      0.06      0.28
 REAL TIME  *         1.19 SEC
 DISK USED  *        46.78 MB
 **********************************************************************************************************************************


 PROGRAM * PAPT (Closed-shell)     Authors: C. Hampel, H.-J. Werner, 1991, P.J. Knowles, 2021


 CORETYPE=SMALL

 Convergence thresholds:  THRVAR = 1.00D-08  THRDEN = 1.00D-06

 Number of closed-shell orbitals:   9 (   9 )
 Number of external orbitals:      44 (  44 )

 Molecular orbitals read from record     2100.2  Type=RHF/CANONICAL  

 Number of N-1 electron functions:               9
 Number of N-2 electron functions:              45
 Number of singly external CSFs:               396
 Number of doubly external CSFs:             78606
 Total number of CSFs:                       79003

 Length of J-op  integral file:               0.00 MB
 Length of K-op  integral file:               0.26 MB

 Integral transformation finished. Total CPU:   0.02 sec, npass=  1  Memory used:   0.32 MW

 Reference energy:                    -95.10830672

                        CORR.ENERGY   TOTAL ENERGY   ENERGY CHANGE
 MP2:                   -0.33069757   -95.43900428    -0.33069757

 SCS-MP2 correlation energy:           -0.33181427   (PS=  1.200000  PT=  0.333333)
 SCS-MP2 total energy:                -95.44012099
 Iteration:   1     0.1923D+00
 Iteration:   2     0.1542D+01
 Iteration:   3     0.8073D-01
 Iteration:   4     0.2366D+00
 Iteration:   5     0.3701D-01
 Iteration:   6     0.4206D-01
 Iteration:   7     0.3452D-01
 Iteration:   8     0.1501D-01
 Iteration:   9     0.2479D-01
 Iteration:  10     0.5379D-02
 Iteration:  11     0.3986D-01
 Iteration:  12     0.1894D-02
 Iteration:  13     0.2224D-02
 Iteration:  14     0.8522D-03
 Iteration:  15     0.5217D-03
 Iteration:  16     0.5372D-03
 Iteration:  17     0.1059D-03
 Iteration:  18     0.5304D-03
 Iteration:  19     0.2935D-04
 PAPT operator written to  7000.1
 PAPT orbitals and eigenvalues written to  7000.2

 MP3(D):                -0.35694579   -95.46525251    -0.02624823



 RESULTS
 =======

  Reference energy                    -95.108306718677

  Correlated core orbitals:             1.1       2.1
  Orbital energies:                   -15.6645  -11.1514

  MP3 core-core energy                 -0.001248874261
  MP3 core-valence energy              -0.003818224210
  MP3 valence correlation energy       -0.351878693682

  MP3 singlet pair energy              -0.248584371668
  MP3 triplet pair energy              -0.108361420485
  MP3 correlation energy               -0.356945792154

 !MP3 total energy                    -95.465252510830

 Timing summary (sec):

 STEP                 CPU(USER)    SYS     CPU(TOT)    WALL
 Transformation          0.02      0.00      0.02      0.03
 CCSD iterations         0.79      0.05      0.84      0.30

 Program statistics:

 Available memory in ccsd:              3145727667
 Min. memory needed in ccsd:                253731
 Max. memory used in ccsd:                  315966
 Max. memory used in cckext:                310600 ( 1 integral passes)



 **********************************************************************************************************************************
 DATASETS  * FILE   NREC   LENGTH (MB)   RECORD NAMES
              1      21       34.83       500      610      700      900      950      970     1000      129      960     1100   
                                          VAR    BASINP    GEOM    SYMINP    ZMAT    AOBASIS   BASIS     P2S    ABASIS      S 
                                         1400     1410     1200     1210     1080     1600     1650     1300     1700     1380   
                                           T        V       H0       H01     AOSYM     SMH    MOLCAS    ERIS     OPER     JKOP   
                                         7000   
                                        PAPT AO    

              2       5        0.69       700     1000      520     2100     7000   
                                         GEOM     BASIS   MCVARS     RHF     PAPT   

 PROGRAMS   *        TOTAL      PAPT    HF-SCF       INT
 CPU TIMES  *         0.72      0.28      0.06      0.28
 REAL TIME  *         1.56 SEC
 DISK USED  *        46.78 MB
 **********************************************************************************************************************************


 PROGRAM * MP4 (Closed-shell)     Authors: C. Hampel, H.-J. Werner, 1991, M. Deegan, P.J. Knowles, 1992


 CORETYPE=SMALL

 Convergence thresholds:  THRVAR = 1.00D-08  THRDEN = 1.00D-06

 MP4(T)     terms to be evaluated (factor= 0.000)


 Number of closed-shell orbitals:   9 (   9 )
 Number of external orbitals:      44 (  44 )

 Molecular orbitals read from record     7000.2  Type=PAPT/CANONICAL (state 1.1)

 Number of N-1 electron functions:               9
 Number of N-2 electron functions:              45
 Number of singly external CSFs:               396
 Number of doubly external CSFs:             78606
 Total number of CSFs:                       79003

 Length of J-op  integral file:               0.00 MB
 Length of K-op  integral file:               0.26 MB

 Memory could be reduced to 1.26 Mwords without degradation in triples

 Integral transformation finished. Total CPU:   0.03 sec, npass=  1  Memory used:   1.08 MW
 Orbital energies read from record       7000.2  Type=PAPT/CANONICAL (state 1.1)

 Reference energy:                    -95.10830672

                        CORR.ENERGY   TOTAL ENERGY   ENERGY CHANGE
 MP2:                   -0.36180730   -95.47011402    -0.36180730

 SCS-MP2 correlation energy:           -0.36505430   (PS=  1.200000  PT=  0.333333)
 SCS-MP2 total energy:                -95.47336102

 MP3(D):                -0.36204234   -95.47034906    -0.00023503
 MP4(DQ):               -0.35986056   -95.46816728     0.00218178
 MP4(SDQ):              -0.36172624   -95.47003296    -0.00186569

 Norm of t1 vector:      0.03748873      S-energy:    -0.00186569      T1 diagnostic:  0.00624812

 Largest off-diagonal element in interal  block of Fock matrix:  0.11D+00
 Largest off-diagonal element in external block of Fock matrix:  0.18D+00


 Total CPU time for triples:      0.38 sec


 RESULTS
 =======

  Reference energy                    -95.108306718677

  Correlated core orbitals:             1.1       2.1
  Orbital energies:                   -16.0853  -11.3919

  MP4(SDQ) core-core energy            -0.001248820441
  MP4(SDQ) core-valence energy         -0.003775390303
  MP4(SDQ) valence correlation ener    -0.356702033796

  MP4(SDQ) singlet pair energy         -0.251850156727
  MP4(SDQ) triplet pair energy         -0.108010402244
  MP4(SDQ) correlation energy          -0.361726244539

  Triples contribution                 -0.010386309585
  Total correlation energy             -0.372112554125

  MP4(SDQ) total energy               -95.470032963216
 !MP4(SDTQ) total energy              -95.480419272801

 Timing summary (sec):

 STEP                 CPU(USER)    SYS     CPU(TOT)    WALL
 Transformation          0.03      0.01      0.04      0.05
 CCSD iterations         0.95      0.01      0.96      0.14
 Triples                 0.38      0.03      0.41      0.42

 Program statistics:

 Available memory in ccsd:              3145727667
 Min. memory needed in ccsd:                253731
 Max. memory used in ccsd:                  315966
 Max. memory used in cckext:                310600 ( 1 integral passes)



 **********************************************************************************************************************************
 DATASETS  * FILE   NREC   LENGTH (MB)   RECORD NAMES
              1      22       37.82       500      610      700      900      950      970     1000      129      960     1100   
                                          VAR    BASINP    GEOM    SYMINP    ZMAT    AOBASIS   BASIS     P2S    ABASIS      S 
                                         1400     1410     1200     1210     1080     1600     1650     1300     1700     1380   
                                           T        V       H0       H01     AOSYM     SMH    MOLCAS    ERIS     OPER     JKOP   
                                         7000     1380(1)
                                        PAPT AO   JKOP   

              2       5        0.69       700     1000      520     2100     7000   
                                         GEOM     BASIS   MCVARS     RHF     PAPT   

 PROGRAMS   *        TOTAL       MP4      PAPT    HF-SCF       INT
 CPU TIMES  *         1.28      0.55      0.28      0.06      0.28
 REAL TIME  *         2.21 SEC
 DISK USED  *        46.78 MB
 **********************************************************************************************************************************

 Dump information in style XML to xml output                                                                      

 Orbitals will not be exported.

 **********************************************************************************************************************************

 MP4/cc-pVDZ energy=    -95.480419272801

             MP4            PAPT          HF-SCF
    -95.48041927    -95.46525251    -95.10830672
 **********************************************************************************************************************************
 Molpro calculation terminated
