
 Working directory              : /var/folders/2v/xbgp75_9785319ghcgb4zr4r0000gr/T//molpro.qHLk00PgM7/
 Global scratch directory       : /var/folders/2v/xbgp75_9785319ghcgb4zr4r0000gr/T//molpro.qHLk00PgM7/
 Wavefunction directory         : /Users/peterk/wfu/
 Main file repository           : /var/folders/2v/xbgp75_9785319ghcgb4zr4r0000gr/T//molpro.qHLk00PgM7/

 id        : peterk

 Nodes        nprocs
 pjk2022.local    1
 GA implementation: MPI file
 GA implementation (serial work in mppx): MPI file

 Using customized tuning parameters: mindgm=1; mindgv=20; mindgc=4; mindgr=1; noblas=0; minvec=7
 default implementation of scratch files=df  


 Variables initialized (1037), CPU time= 0.01 sec
 
 
 
 geometry={
 7
    C   -0.02390885627557     -0.05302641663315     -0.10745866578343
    N   0.00092066825824      0.00365468344940      1.44477708016972
    H   0.94208618779814     -0.01259041963198      1.82514474753541
    H   -0.46202504306172      0.82039651080639      1.83220555804372
    H   -0.47773812151175     -0.80605899270518      1.81564860500214
    H   -0.49462389264234      0.88965947573447     -0.38874381678550
    H   1.02864905743500      0.04713015898005     -0.37957750818206
 }
 basis=cc-pVTZ
 core,small
 
 
 hf; papt;mp4
 
 
 
 {put,xml;noorbitals,nobasis}
 Commands initialized (841), CPU time= 0.00 sec, 716 directives.
 Default parameters read. Elapsed time= 0.05 sec

 Checking input...
 Passed
1


                                         ***  PROGRAM SYSTEM MOLPRO  ***
                                       Copyright, TTI GmbH Stuttgart, 2015
                                    Version 2023.1 linked Sat Jul 22 07:59:25 2023


 **********************************************************************************************************************************
 LABEL *                                                                                                                                                                 
  64 bit serial version                                                                  DATE: 02-Aug-23          TIME: 04:56:01  
 **********************************************************************************************************************************

 SHA1:             401d111a1dbfa49388eacdf0424f85138b2d30d0
 **********************************************************************************************************************************

 Memory per process:      3146 MW
 Total memory per node:   4194 MW
 Total GA space:          1049 MW

 GA preallocation disabled
 GA check enabled

 Geometry recognized as XYZ


 Variable memory set to 3145.7 MW

 SETTING BASIS          =    CC-PVTZ


 Recomputing integrals since basis changed


 Using spherical harmonics

 Library entry C      S cc-pVTZ              selected for orbital group  1
 Library entry C      P cc-pVTZ              selected for orbital group  1
 Library entry C      D cc-pVTZ              selected for orbital group  1
 Library entry C      F cc-pVTZ              selected for orbital group  1
 Library entry N      S cc-pVTZ              selected for orbital group  2
 Library entry N      P cc-pVTZ              selected for orbital group  2
 Library entry N      D cc-pVTZ              selected for orbital group  2
 Library entry N      F cc-pVTZ              selected for orbital group  2
 Library entry H      S cc-pVTZ              selected for orbital group  3
 Library entry H      P cc-pVTZ              selected for orbital group  3
 Library entry H      D cc-pVTZ              selected for orbital group  3


 PROGRAM * SEWARD (Integral evaluation for generally contracted gaussian basis sets)     Author: Roland Lindh, 1990

 Geometry written to block  1 of record 700


 Point group  C1  



 ATOMIC COORDINATES

 NR  ATOM    CHARGE       X              Y              Z

   1  C       6.00   -0.045181190   -0.100205405   -0.203067448
   2  N       7.00    0.001739811    0.006906351    2.730232993
   3  H       1.00    1.780284881   -0.023792445    3.449023711
   4  H       1.00   -0.873100794    1.550324719    3.462366709
   5  H       1.00   -0.902794209   -1.523230737    3.431078602
   6  H       1.00   -0.934703692    1.681212753   -0.734619346
   7  H       1.00    1.943864997    0.089063093   -0.717297534

 Bond lengths in Bohr (Angstrom)

 1-2  2.935630424  1-6  2.060885333  1-7  2.063143204  2-3  1.918547648  2-4  1.919246238
     ( 1.553468720)     ( 1.090573552)     ( 1.091768366)     ( 1.015251693)     ( 1.015621371)

 2-5  1.910676809
     ( 1.011086625)

 Bond angles

  1-2-3  112.86675045   1-2-4  113.77981822   1-2-5  109.25221902   2-1-6  103.47841796

  2-1-7  103.31424331   3-2-4  107.00834166   3-2-5  106.77565637   4-2-5  106.75608785

  6-1-7  105.81521240

 NUCLEAR CHARGE:                   18
 NUMBER OF PRIMITIVE AOS:         179
 NUMBER OF SYMMETRY AOS:          164
 NUMBER OF CONTRACTIONS:          130   (  130A   )
 NUMBER OF INNER CORE ORBITALS:     0   (    0A   )
 NUMBER OF OUTER CORE ORBITALS:     2   (    2A   )
 NUMBER OF VALENCE ORBITALS:       13   (   13A   )


 NUCLEAR REPULSION ENERGY   41.57132300

 Eigenvalues of metric

         1 0.105E-02 0.158E-02 0.194E-02 0.237E-02 0.264E-02 0.296E-02 0.440E-02 0.589E-02


 Contracted 2-electron integrals neglected if value below      1.0D-11
 AO integral compression algorithm  1   Integral accuracy      1.0D-11

     170.394 MB (compressed) written to integral file ( 51.6%)


 NUMBER OF SORTED TWO-ELECTRON INTEGRALS:   36256870.     BUFFER LENGTH:  32768
 NUMBER OF SEGMENTS:   3  SEGMENT LENGTH:   15998004      RECORD LENGTH: 524288

 Memory used in sort:      16.56 MW

 SORT1 READ    41222595. AND WROTE    35950917. INTEGRALS IN    105 RECORDS. CPU TIME:     0.25 SEC, REAL TIME:     0.34 SEC
 SORT2 READ    35950917. AND WROTE    36256870. INTEGRALS IN    650 RECORDS. CPU TIME:     0.27 SEC, REAL TIME:     0.33 SEC

 FILE SIZES:   FILE 1:   201.1 MBYTE,  FILE 4:   440.5 MBYTE,   TOTAL:    641.6 MBYTE

 OPERATOR DM      FOR CENTER  0  COORDINATES:    0.000000    0.000000    0.000000


 **********************************************************************************************************************************
 DATASETS  * FILE   NREC   LENGTH (MB)   RECORD NAMES
              1      19      174.70       500      610      700      900      950      970     1000      129      960     1100   
                                          VAR    BASINP    GEOM    SYMINP    ZMAT    AOBASIS   BASIS     P2S    ABASIS      S 
                                         1400     1410     1200     1210     1080     1600     1650     1300     1700   
                                           T        V       H0       H01     AOSYM     SMH    MOLCAS    ERIS     OPER   

 PROGRAMS   *        TOTAL       INT
 CPU TIMES  *         1.60      1.52
 REAL TIME  *         2.31 SEC
 DISK USED  *       612.31 MB
 **********************************************************************************************************************************


 Program * Restricted Hartree-Fock

 Orbital guess generated from atomic densities. Full valence occupancy:   15

 Initial occupancy:   9

 NELEC=   18   SYM=1   MS2= 0   THRE=1.0D-08   THRD=3.2D-06   THRG=3.2D-06  HFMA2=F  DIIS_START=2   DIIS_MAX=10   DIIS_INCORE=F

 Level shifts:    0.00 (CLOSED)    0.00 (OPEN)    0.30 (GAP_MIN)

 ITER           ETOT              DE          GRAD        DDIFF     DIIS  NEXP   TIME(IT)  TIME(TOT)  DIAG
   1      -95.06775743     -95.06775743     0.00D+00     0.62D-01     0     0       0.15      0.28    start
   2      -95.13011264      -0.06235521     0.72D-02     0.96D-02     1     0       0.14      0.42    diag
   3      -95.14144255      -0.01132990     0.33D-02     0.33D-02     2     0       0.15      0.57    diag
   4      -95.14229725      -0.00085470     0.64D-03     0.82D-03     3     0       0.14      0.71    diag
   5      -95.14239316      -0.00009591     0.19D-03     0.30D-03     4     0       0.15      0.86    diag
   6      -95.14240704      -0.00001388     0.72D-04     0.13D-03     5     0       0.14      1.00    diag
   7      -95.14240928      -0.00000224     0.25D-04     0.55D-04     6     0       0.15      1.15    diag
   8      -95.14240960      -0.00000032     0.73D-05     0.24D-04     7     0       0.14      1.29    fixocc
   9      -95.14240962      -0.00000002     0.19D-05     0.62D-05     8     0       0.14      1.43    diag
  10      -95.14240962      -0.00000000     0.55D-06     0.19D-05     9     0       0.15      1.58    diag/orth
  11      -95.14240962      -0.00000000     0.12D-06     0.27D-06     0     0       0.15      1.73    diag

 Final occupancy:   9

 !RHF STATE 1.1 Energy                -95.142409622538
  RHF One-electron energy            -210.053832693473
  RHF Two-electron energy              73.340100072136
  RHF Kinetic energy                   95.082264660436
  RHF Nuclear energy                   41.571322998799
  RHF Virial quotient                  -1.000632557105

 !RHF STATE 1.1 Dipole moment           0.29572405     0.54746595     2.16819664
 Dipole moment /Debye                   0.75165556     1.39151964     5.51100617

 Orbital energies:

           1.1          2.1          3.1          4.1          5.1          6.1          7.1          8.1          9.1         10.1
    -15.658570   -11.154884    -1.267538    -0.849859    -0.736634    -0.730115    -0.557869    -0.469636    -0.261712     0.101441

          11.1
      0.165129


 HOMO      9.1    -0.261712 =      -7.1215eV
 LUMO     10.1     0.101441 =       2.7604eV
 LUMO-HOMO         0.363153 =       9.8819eV

 Orbitals saved in record  2100.2


 **********************************************************************************************************************************
 DATASETS  * FILE   NREC   LENGTH (MB)   RECORD NAMES
              1      19      174.70       500      610      700      900      950      970     1000      129      960     1100   
                                          VAR    BASINP    GEOM    SYMINP    ZMAT    AOBASIS   BASIS     P2S    ABASIS      S 
                                         1400     1410     1200     1210     1080     1600     1650     1300     1700   
                                           T        V       H0       H01     AOSYM     SMH    MOLCAS    ERIS     OPER   

              2       4        0.75       700     1000      520     2100   
                                         GEOM     BASIS   MCVARS     RHF  

 PROGRAMS   *        TOTAL    HF-SCF       INT
 CPU TIMES  *         3.33      1.73      1.52
 REAL TIME  *         4.22 SEC
 DISK USED  *       612.31 MB
 **********************************************************************************************************************************


 PROGRAM * PAPT (Closed-shell)     Authors: C. Hampel, H.-J. Werner, 1991, P.J. Knowles, 2021


 CORETYPE=SMALL

 Convergence thresholds:  THRVAR = 1.00D-08  THRDEN = 1.00D-06

 Number of closed-shell orbitals:   9 (   9 )
 Number of external orbitals:     121 ( 121 )

 Molecular orbitals read from record     2100.2  Type=RHF/CANONICAL  

 Number of N-1 electron functions:               9
 Number of N-2 electron functions:              45
 Number of singly external CSFs:              1089
 Number of doubly external CSFs:            593505
 Total number of CSFs:                      594595

 Length of J-op  integral file:               0.00 MB
 Length of K-op  integral file:               1.22 MB

 Integral transformation finished. Total CPU:   0.43 sec, npass=  1  Memory used:   1.65 MW

 Reference energy:                    -95.14240962

                        CORR.ENERGY   TOTAL ENERGY   ENERGY CHANGE
 MP2:                   -0.43574842   -95.57815804    -0.43574842

 SCS-MP2 correlation energy:           -0.44141191   (PS=  1.200000  PT=  0.333333)
 SCS-MP2 total energy:                -95.58382153
 Iteration:   1     0.2460D+00
 Iteration:   2     0.2487D+01
 Iteration:   3     0.8915D-01
 Iteration:   4     0.1776D+00
 Iteration:   5     0.4945D-01
 Iteration:   6     0.3828D-01
 Iteration:   7     0.6342D-01
 Iteration:   8     0.1765D-01
 Iteration:   9     0.1045D+00
 Iteration:  10     0.7444D-02
 Iteration:  11     0.9538D-02
 Iteration:  12     0.3072D-02
 Iteration:  13     0.2424D-02
 Iteration:  14     0.2206D-02
 Iteration:  15     0.4327D-03
 Iteration:  16     0.9790D-03
 Iteration:  17     0.1542D-03
 Iteration:  18     0.9713D-04
 PAPT operator written to  7000.1
 PAPT orbitals and eigenvalues written to  7000.2

 MP3(D):                -0.45913759   -95.60154721    -0.02338917



 RESULTS
 =======

  Reference energy                    -95.142409622538

  Correlated core orbitals:             1.1       2.1
  Orbital energies:                   -15.6586  -11.1549

  MP3 core-core energy                 -0.018273985840
  MP3 core-valence energy              -0.012750000997
  MP3 valence correlation energy       -0.428113599331

  MP3 singlet pair energy              -0.323999511990
  MP3 triplet pair energy              -0.135138074178
  MP3 correlation energy               -0.459137586168

 !MP3 total energy                    -95.601547208706

 Timing summary (sec):

 STEP                 CPU(USER)    SYS     CPU(TOT)    WALL
 Transformation          0.46      0.04      0.50      0.52
 CCSD iterations         5.80      0.11      5.91      2.48

 Program statistics:

 Available memory in ccsd:              3145727667
 Min. memory needed in ccsd:               1721783
 Max. memory used in ccsd:                 2229617
 Max. memory used in cckext:               1673623 ( 1 integral passes)



 **********************************************************************************************************************************
 DATASETS  * FILE   NREC   LENGTH (MB)   RECORD NAMES
              1      21      183.75       500      610      700      900      950      970     1000      129      960     1100   
                                          VAR    BASINP    GEOM    SYMINP    ZMAT    AOBASIS   BASIS     P2S    ABASIS      S 
                                         1400     1410     1200     1210     1080     1600     1650     1300     1700     1380   
                                           T        V       H0       H01     AOSYM     SMH    MOLCAS    ERIS     OPER     JKOP   
                                         7000   
                                        PAPT AO    

              2       5        1.24       700     1000      520     2100     7000   
                                         GEOM     BASIS   MCVARS     RHF     PAPT   

 PROGRAMS   *        TOTAL      PAPT    HF-SCF       INT
 CPU TIMES  *         6.17      2.84      1.73      1.52
 REAL TIME  *         7.25 SEC
 DISK USED  *       612.31 MB
 **********************************************************************************************************************************


 PROGRAM * MP4 (Closed-shell)     Authors: C. Hampel, H.-J. Werner, 1991, M. Deegan, P.J. Knowles, 1992


 CORETYPE=SMALL

 Convergence thresholds:  THRVAR = 1.00D-08  THRDEN = 1.00D-06

 MP4(T)     terms to be evaluated (factor= 0.000)


 Number of closed-shell orbitals:   9 (   9 )
 Number of external orbitals:     121 ( 121 )

 Molecular orbitals read from record     7000.2  Type=PAPT/CANONICAL (state 1.1)

 Number of N-1 electron functions:               9
 Number of N-2 electron functions:              45
 Number of singly external CSFs:              1089
 Number of doubly external CSFs:            593505
 Total number of CSFs:                      594595

 Length of J-op  integral file:               0.00 MB
 Length of K-op  integral file:               1.22 MB

 Memory could be reduced to 22.10 Mwords without degradation in triples

 Integral transformation finished. Total CPU:   0.95 sec, npass=  1  Memory used:  12.72 MW
 Orbital energies read from record       7000.2  Type=PAPT/CANONICAL (state 1.1)

 Reference energy:                    -95.14240962

                        CORR.ENERGY   TOTAL ENERGY   ENERGY CHANGE
 MP2:                   -0.46387321   -95.60628284    -0.46387321

 SCS-MP2 correlation energy:           -0.47166802   (PS=  1.200000  PT=  0.333333)
 SCS-MP2 total energy:                -95.61407764

 MP3(D):                -0.46410105   -95.60651067    -0.00022783
 MP4(DQ):               -0.45859638   -95.60100600     0.00550467
 MP4(SDQ):              -0.46115635   -95.60356598    -0.00255997

 Norm of t1 vector:      0.03896425      S-energy:    -0.00255997      T1 diagnostic:  0.00649404

 Largest off-diagonal element in interal  block of Fock matrix:  0.12D+00
 Largest off-diagonal element in external block of Fock matrix:  0.36D+00


 Total CPU time for triples:      9.27 sec


 RESULTS
 =======

  Reference energy                    -95.142409622538

  Correlated core orbitals:             1.1       2.1
  Orbital energies:                   -15.0310  -10.6086

  MP4(SDQ) core-core energy            -0.018424892904
  MP4(SDQ) core-valence energy         -0.012712571064
  MP4(SDQ) valence correlation ener    -0.430018890349

  MP4(SDQ) singlet pair energy         -0.324939869847
  MP4(SDQ) triplet pair energy         -0.133656511311
  MP4(SDQ) correlation energy          -0.461156354318

  Triples contribution                 -0.017994720204
  Total correlation energy             -0.479151074522

  MP4(SDQ) total energy               -95.603565976857
 !MP4(SDTQ) total energy              -95.621560697060

 Timing summary (sec):

 STEP                 CPU(USER)    SYS     CPU(TOT)    WALL
 Transformation          1.11      0.09      1.20      1.20
 CCSD iterations         7.31      0.03      7.34      1.07
 Triples                 9.27      0.34      9.61      9.67

 Program statistics:

 Available memory in ccsd:              3145727667
 Min. memory needed in ccsd:               1721783
 Max. memory used in ccsd:                 2229617
 Max. memory used in cckext:               1673623 ( 1 integral passes)



 **********************************************************************************************************************************
 DATASETS  * FILE   NREC   LENGTH (MB)   RECORD NAMES
              1      22      245.08       500      610      700      900      950      970     1000      129      960     1100   
                                          VAR    BASINP    GEOM    SYMINP    ZMAT    AOBASIS   BASIS     P2S    ABASIS      S 
                                         1400     1410     1200     1210     1080     1600     1650     1300     1700     1380   
                                           T        V       H0       H01     AOSYM     SMH    MOLCAS    ERIS     OPER     JKOP   
                                         7000     1380(1)
                                        PAPT AO   JKOP   

              2       5        1.24       700     1000      520     2100     7000   
                                         GEOM     BASIS   MCVARS     RHF     PAPT   

 PROGRAMS   *        TOTAL       MP4      PAPT    HF-SCF       INT
 CPU TIMES  *        17.61     11.43      2.84      1.73      1.52
 REAL TIME  *        19.22 SEC
 DISK USED  *       612.31 MB
 **********************************************************************************************************************************

 Dump information in style XML to xml output                                                                      

 Orbitals will not be exported.

 **********************************************************************************************************************************

 MP4/cc-pVTZ energy=    -95.621560697060

             MP4            PAPT          HF-SCF
    -95.62156070    -95.60154721    -95.14240962
 **********************************************************************************************************************************
 Molpro calculation terminated
