
 Working directory              : /var/folders/2v/xbgp75_9785319ghcgb4zr4r0000gr/T//molpro.vsOK9seLBu/
 Global scratch directory       : /var/folders/2v/xbgp75_9785319ghcgb4zr4r0000gr/T//molpro.vsOK9seLBu/
 Wavefunction directory         : /Users/peterk/wfu/
 Main file repository           : /var/folders/2v/xbgp75_9785319ghcgb4zr4r0000gr/T//molpro.vsOK9seLBu/

 id        : peterk

 Nodes        nprocs
 pjk2022.local    1
 GA implementation: MPI file
 GA implementation (serial work in mppx): MPI file

 Using customized tuning parameters: mindgm=1; mindgv=20; mindgc=4; mindgr=1; noblas=0; minvec=7
 default implementation of scratch files=df  


 Variables initialized (1037), CPU time= 0.00 sec
 
 
 
 geometry={
 7
  C    -0.2143504    0.9533214    0.0000000
  N    -0.1118448   -0.5782992    0.0000000
  H     0.8108410   -1.0328730    0.0000000
  H    -0.6149312   -0.9202851    0.8074929
  H    -0.6149312   -0.9202851   -0.8074929
  H     0.3726083    1.2492105    0.8729349
  H     0.3726083    1.2492105   -0.8729349
 }
 basis=cc-pVDZ
 core,small
 
 
 hf; papt;mp4
 
 
 
 {put,xml;noorbitals,nobasis}
 Commands initialized (841), CPU time= 0.01 sec, 716 directives.
 Default parameters read. Elapsed time= 0.06 sec

 Checking input...
 Passed
1


                                         ***  PROGRAM SYSTEM MOLPRO  ***
                                       Copyright, TTI GmbH Stuttgart, 2015
                                    Version 2023.1 linked Sat Jul 22 07:59:25 2023


 **********************************************************************************************************************************
 LABEL *                                                                                                                                                                 
  64 bit serial version                                                                  DATE: 01-Aug-23          TIME: 22:55:50  
 **********************************************************************************************************************************

 SHA1:             401d111a1dbfa49388eacdf0424f85138b2d30d0
 **********************************************************************************************************************************

 Memory per process:      3146 MW
 Total memory per node:   4194 MW
 Total GA space:          1049 MW

 GA preallocation disabled
 GA check enabled

 Geometry recognized as XYZ


 Variable memory set to 3145.7 MW

 SETTING BASIS          =    CC-PVDZ


 Recomputing integrals since basis changed


 Using spherical harmonics

 Library entry C      S cc-pVDZ              selected for orbital group  1
 Library entry C      P cc-pVDZ              selected for orbital group  1
 Library entry C      D cc-pVDZ              selected for orbital group  1
 Library entry N      S cc-pVDZ              selected for orbital group  2
 Library entry N      P cc-pVDZ              selected for orbital group  2
 Library entry N      D cc-pVDZ              selected for orbital group  2
 Library entry H      S cc-pVDZ              selected for orbital group  3
 Library entry H      P cc-pVDZ              selected for orbital group  3


 PROGRAM * SEWARD (Integral evaluation for generally contracted gaussian basis sets)     Author: Roland Lindh, 1990

 Geometry written to block  1 of record 700


 Point group  Cs  



 ATOMIC COORDINATES

 NR  ATOM    CHARGE       X              Y              Z

   1  C       6.00   -0.405063551    1.801516355    0.000000000
   2  N       7.00   -0.211356040   -1.092827106    0.000000000
   3  H       1.00    1.532267421   -1.951847092    0.000000000
   4  H       1.00   -1.162051553   -1.739086796    1.525940429
   5  H       1.00   -1.162051553   -1.739086796   -1.525940429
   6  H       1.00    0.704127639    2.360665717    1.649607886
   7  H       1.00    0.704127639    2.360665717   -1.649607886

 Bond lengths in Bohr (Angstrom)

 1-2  2.900818276  1-6  2.064984087  1-7  2.064984087  2-3  1.943743324  2-4  1.910488874
     ( 1.535046924)     ( 1.092742520)     ( 1.092742520)     ( 1.028584671)     ( 1.010987174)

 2-5  1.910488874
     ( 1.010987174)

 Bond angles

  1-2-3  120.05667508   1-2-4  107.71514152   1-2-5  107.71514152   2-1-6  103.55057035

  2-1-7  103.55057035   3-2-4  107.27096932   3-2-5  107.27096932   4-2-5  106.01556643

  6-1-7  106.04042148

 NUCLEAR CHARGE:                   18
 NUMBER OF PRIMITIVE AOS:          89
 NUMBER OF SYMMETRY AOS:           87
 NUMBER OF CONTRACTIONS:           53   (   34A'  +   19A"  )
 NUMBER OF INNER CORE ORBITALS:     0   (    0A'  +    0A"  )
 NUMBER OF OUTER CORE ORBITALS:     2   (    2A'  +    0A"  )
 NUMBER OF VALENCE ORBITALS:       13   (    9A'  +    4A"  )


 NUCLEAR REPULSION ENERGY   41.75965206

 Eigenvalues of metric

         1 0.722E-02 0.167E-01 0.331E-01 0.385E-01 0.456E-01 0.549E-01 0.704E-01 0.957E-01
         2 0.337E-01 0.370E-01 0.529E-01 0.717E-01 0.117E+00 0.155E+00 0.378E+00 0.432E+00


 Contracted 2-electron integrals neglected if value below      1.0D-11
 AO integral compression algorithm  1   Integral accuracy      1.0D-11

     3.146 MB (compressed) written to integral file ( 63.4%)


 NUMBER OF SORTED TWO-ELECTRON INTEGRALS:     534605.     BUFFER LENGTH:  32768
 NUMBER OF SEGMENTS:   1  SEGMENT LENGTH:     534605      RECORD LENGTH: 524288

 Memory used in sort:       1.09 MW

 SORT1 READ      657868. AND WROTE      528661. INTEGRALS IN      2 RECORDS. CPU TIME:     0.01 SEC, REAL TIME:     0.01 SEC
 SORT2 READ      528661. AND WROTE      534605. INTEGRALS IN     12 RECORDS. CPU TIME:     0.02 SEC, REAL TIME:     0.02 SEC

 FILE SIZES:   FILE 1:    33.3 MBYTE,  FILE 4:     8.5 MBYTE,   TOTAL:     41.8 MBYTE

 OPERATOR DM      FOR CENTER  0  COORDINATES:    0.000000    0.000000    0.000000


 **********************************************************************************************************************************
 DATASETS  * FILE   NREC   LENGTH (MB)   RECORD NAMES
              1      19       31.14       500      610      700      900      950      970     1000      129      960     1100   
                                          VAR    BASINP    GEOM    SYMINP    ZMAT    AOBASIS   BASIS     P2S    ABASIS      S 
                                         1400     1410     1200     1210     1080     1600     1650     1300     1700   
                                           T        V       H0       H01     AOSYM     SMH    MOLCAS    ERIS     OPER   

 PROGRAMS   *        TOTAL       INT
 CPU TIMES  *         0.35      0.25
 REAL TIME  *         0.83 SEC
 DISK USED  *        40.25 MB
 **********************************************************************************************************************************


 Program * Restricted Hartree-Fock

 Orbital guess generated from atomic densities. Full valence occupancy:   11   4

 Initial occupancy:   7   2

 NELEC=   18   SYM=1   MS2= 0   THRE=1.0D-08   THRD=3.2D-06   THRG=3.2D-06  HFMA2=F  DIIS_START=2   DIIS_MAX=10   DIIS_INCORE=F

 Level shifts:    0.00 (CLOSED)    0.00 (OPEN)    0.30 (GAP_MIN)

 ITER           ETOT              DE          GRAD        DDIFF     DIIS  NEXP   TIME(IT)  TIME(TOT)  DIAG
   1      -95.03953018     -95.03953018     0.00D+00     0.19D+00     0     0       0.00      0.00    start
   2      -95.10115079      -0.06162060     0.16D-01     0.33D-01     1     0       0.00      0.00    diag
   3      -95.11156129      -0.01041050     0.68D-02     0.12D-01     2     0       0.01      0.01    diag
   4      -95.11239275      -0.00083146     0.14D-02     0.31D-02     3     0       0.00      0.01    diag
   5      -95.11247568      -0.00008293     0.40D-03     0.92D-03     4     0       0.00      0.01    diag
   6      -95.11248818      -0.00001250     0.15D-03     0.41D-03     5     0       0.00      0.01    diag
   7      -95.11248977      -0.00000159     0.45D-04     0.14D-03     6     0       0.00      0.01    diag
   8      -95.11248991      -0.00000015     0.12D-04     0.43D-04     7     0       0.01      0.02    fixocc
   9      -95.11248993      -0.00000001     0.31D-05     0.12D-04     8     0       0.00      0.02    diag
  10      -95.11248993      -0.00000000     0.79D-06     0.34D-05     9     0       0.00      0.02    diag/orth
  11      -95.11248993      -0.00000000     0.16D-06     0.72D-06     9     0       0.00      0.02    diag
  12      -95.11248993      -0.00000000     0.43D-07     0.16D-06     0     0       0.00      0.02    diag

 Final occupancy:   7   2

 !RHF STATE 1.1 Energy                -95.112489926166
  RHF One-electron energy            -210.413473531639
  RHF Two-electron energy              73.541331547463
  RHF Kinetic energy                   95.045646464088
  RHF Nuclear energy                   41.759652058010
  RHF Virial quotient                  -1.000703277473

 !RHF STATE 1.1 Dipole moment           0.60202658    -2.14451714     0.00000000
 Dipole moment /Debye                   1.53019895    -5.45081887     0.00000000

 Orbital energies:

           1.1          2.1          3.1          4.1          5.1          6.1          7.1          8.1          9.1
    -15.666397   -11.152619    -1.267494    -0.846896    -0.727963    -0.552135    -0.255934     0.140642     0.213133

           1.2          2.2          3.2          4.2
     -0.733673    -0.462295     0.217202     0.313939


 HOMO      7.1    -0.255934 =      -6.9643eV
 LUMO      8.1     0.140642 =       3.8271eV
 LUMO-HOMO         0.396576 =      10.7914eV

 Orbitals saved in record  2100.2


 **********************************************************************************************************************************
 DATASETS  * FILE   NREC   LENGTH (MB)   RECORD NAMES
              1      19       31.14       500      610      700      900      950      970     1000      129      960     1100   
                                          VAR    BASINP    GEOM    SYMINP    ZMAT    AOBASIS   BASIS     P2S    ABASIS      S 
                                         1400     1410     1200     1210     1080     1600     1650     1300     1700   
                                           T        V       H0       H01     AOSYM     SMH    MOLCAS    ERIS     OPER   

              2       4        0.50       700     1000      520     2100   
                                         GEOM     BASIS   MCVARS     RHF  

 PROGRAMS   *        TOTAL    HF-SCF       INT
 CPU TIMES  *         0.37      0.02      0.25
 REAL TIME  *         0.86 SEC
 DISK USED  *        40.25 MB
 **********************************************************************************************************************************


 PROGRAM * PAPT (Closed-shell)     Authors: C. Hampel, H.-J. Werner, 1991, P.J. Knowles, 2021


 CORETYPE=SMALL

 Convergence thresholds:  THRVAR = 1.00D-08  THRDEN = 1.00D-06

 Number of closed-shell orbitals:   9 (   7   2 )
 Number of external orbitals:      44 (  27  17 )

 Molecular orbitals read from record     2100.2  Type=RHF/CANONICAL  

 Number of N-1 electron functions:               9
 Number of N-2 electron functions:              45
 Number of singly external CSFs:               223
 Number of doubly external CSFs:             40027
 Total number of CSFs:                       40251

 Length of J-op  integral file:               0.00 MB
 Length of K-op  integral file:               0.17 MB

 Integral transformation finished. Total CPU:   0.01 sec, npass=  1  Memory used:   0.14 MW

 Reference energy:                    -95.11248993

                        CORR.ENERGY   TOTAL ENERGY   ENERGY CHANGE
 MP2:                   -0.33167883   -95.44416875    -0.33167883

 SCS-MP2 correlation energy:           -0.33258446   (PS=  1.200000  PT=  0.333333)
 SCS-MP2 total energy:                -95.44507439
 Iteration:   1     0.1928D+00
 Iteration:   2     0.1575D+01
 Iteration:   3     0.8000D-01
 Iteration:   4     0.2383D+00
 Iteration:   5     0.3663D-01
 Iteration:   6     0.3988D-01
 Iteration:   7     0.3213D-01
 Iteration:   8     0.1411D-01
 Iteration:   9     0.2212D-01
 Iteration:  10     0.4987D-02
 Iteration:  11     0.3933D-01
 Iteration:  12     0.1722D-02
 Iteration:  13     0.1849D-02
 Iteration:  14     0.8149D-03
 Iteration:  15     0.4440D-03
 Iteration:  16     0.5520D-03
 Iteration:  17     0.9990D-04
 PAPT operator written to  7000.1
 PAPT orbitals and eigenvalues written to  7000.2

 MP3(D):                -0.35762591   -95.47011583    -0.02594708



 RESULTS
 =======

  Reference energy                    -95.112489926166

  Correlated core orbitals:             1.1       2.1
  Orbital energies:                   -15.6664  -11.1526

  MP3 core-core energy                 -0.001251279178
  MP3 core-valence energy              -0.003822973629
  MP3 valence correlation energy       -0.352551655175

  MP3 singlet pair energy              -0.248735557601
  MP3 triplet pair energy              -0.108890350381
  MP3 correlation energy               -0.357625907982

 !MP3 total energy                    -95.470115834148

 Timing summary (sec):

 STEP                 CPU(USER)    SYS     CPU(TOT)    WALL
 Transformation          0.01      0.01      0.02      0.01
 CCSD iterations         0.57      0.01      0.58      0.10

 Program statistics:

 Available memory in ccsd:              3145727669
 Min. memory needed in ccsd:                131466
 Max. memory used in ccsd:                  162896
 Max. memory used in cckext:                195571 ( 1 integral passes)



 **********************************************************************************************************************************
 DATASETS  * FILE   NREC   LENGTH (MB)   RECORD NAMES
              1      21       31.93       500      610      700      900      950      970     1000      129      960     1100   
                                          VAR    BASINP    GEOM    SYMINP    ZMAT    AOBASIS   BASIS     P2S    ABASIS      S 
                                         1400     1410     1200     1210     1080     1600     1650     1300     1700     1380   
                                           T        V       H0       H01     AOSYM     SMH    MOLCAS    ERIS     OPER     JKOP   
                                         7000   
                                        PAPT AO    

              2       5        0.64       700     1000      520     2100     7000   
                                         GEOM     BASIS   MCVARS     RHF     PAPT   

 PROGRAMS   *        TOTAL      PAPT    HF-SCF       INT
 CPU TIMES  *         0.50      0.12      0.02      0.25
 REAL TIME  *         1.00 SEC
 DISK USED  *        40.25 MB
 **********************************************************************************************************************************


 PROGRAM * MP4 (Closed-shell)     Authors: C. Hampel, H.-J. Werner, 1991, M. Deegan, P.J. Knowles, 1992


 CORETYPE=SMALL

 Convergence thresholds:  THRVAR = 1.00D-08  THRDEN = 1.00D-06

 MP4(T)     terms to be evaluated (factor= 0.000)


 Number of closed-shell orbitals:   9 (   7   2 )
 Number of external orbitals:      44 (  27  17 )

 Molecular orbitals read from record     7000.2  Type=PAPT/CANONICAL (state 1.1)

 Number of N-1 electron functions:               9
 Number of N-2 electron functions:              45
 Number of singly external CSFs:               223
 Number of doubly external CSFs:             40027
 Total number of CSFs:                       40251

 Length of J-op  integral file:               0.00 MB
 Length of K-op  integral file:               0.17 MB

 Memory could be reduced to 0.65 Mwords without degradation in triples

 Integral transformation finished. Total CPU:   0.00 sec, npass=  1  Memory used:   0.35 MW
 Orbital energies read from record       7000.2  Type=PAPT/CANONICAL (state 1.1)

 Reference energy:                    -95.11248993

                        CORR.ENERGY   TOTAL ENERGY   ENERGY CHANGE
 MP2:                   -0.36239447   -95.47488439    -0.36239447

 SCS-MP2 correlation energy:           -0.36541134   (PS=  1.200000  PT=  0.333333)
 SCS-MP2 total energy:                -95.47790127

 MP3(D):                -0.36262607   -95.47511599    -0.00023160
 MP4(DQ):               -0.36052575   -95.47301568     0.00210032
 MP4(SDQ):              -0.36246524   -95.47495517    -0.00193949

 Norm of t1 vector:      0.03929950      S-energy:    -0.00193949      T1 diagnostic:  0.00654992

 Largest off-diagonal element in interal  block of Fock matrix:  0.11D+00
 Largest off-diagonal element in external block of Fock matrix:  0.16D+00


 Total CPU time for triples:      0.25 sec


 RESULTS
 =======

  Reference energy                    -95.112489926166

  Correlated core orbitals:             1.1       2.1
  Orbital energies:                   -16.0812  -11.3969

  MP4(SDQ) core-core energy            -0.001251296078
  MP4(SDQ) core-valence energy         -0.003780866473
  MP4(SDQ) valence correlation ener    -0.357433081068

  MP4(SDQ) singlet pair energy         -0.251960430883
  MP4(SDQ) triplet pair energy         -0.108565318754
  MP4(SDQ) correlation energy          -0.362465243619

  Triples contribution                 -0.010518061293
  Total correlation energy             -0.372983304912

  MP4(SDQ) total energy               -95.474955169785
 !MP4(SDTQ) total energy              -95.485473231078

 Timing summary (sec):

 STEP                 CPU(USER)    SYS     CPU(TOT)    WALL
 Transformation          0.01      0.00      0.01      0.03
 CCSD iterations         0.68      0.01      0.69      0.08
 Triples                 0.25      0.01      0.26      0.27

 Program statistics:

 Available memory in ccsd:              3145727669
 Min. memory needed in ccsd:                131466
 Max. memory used in ccsd:                  162896
 Max. memory used in cckext:                195571 ( 1 integral passes)



 **********************************************************************************************************************************
 DATASETS  * FILE   NREC   LENGTH (MB)   RECORD NAMES
              1      22       33.44       500      610      700      900      950      970     1000      129      960     1100   
                                          VAR    BASINP    GEOM    SYMINP    ZMAT    AOBASIS   BASIS     P2S    ABASIS      S 
                                         1400     1410     1200     1210     1080     1600     1650     1300     1700     1380   
                                           T        V       H0       H01     AOSYM     SMH    MOLCAS    ERIS     OPER     JKOP   
                                         7000     1380(1)
                                        PAPT AO   JKOP   

              2       5        0.64       700     1000      520     2100     7000   
                                         GEOM     BASIS   MCVARS     RHF     PAPT   

 PROGRAMS   *        TOTAL       MP4      PAPT    HF-SCF       INT
 CPU TIMES  *         0.87      0.37      0.12      0.02      0.25
 REAL TIME  *         1.42 SEC
 DISK USED  *        40.25 MB
 **********************************************************************************************************************************

 Dump information in style XML to xml output                                                                      

 Orbitals will not be exported.

 **********************************************************************************************************************************

 MP4/cc-pVDZ energy=    -95.485473231078

             MP4            PAPT          HF-SCF
    -95.48547323    -95.47011583    -95.11248993
 **********************************************************************************************************************************
 Molpro calculation terminated
