
 Working directory              : /var/folders/2v/xbgp75_9785319ghcgb4zr4r0000gr/T//molpro.45z5jzhM2B/
 Global scratch directory       : /var/folders/2v/xbgp75_9785319ghcgb4zr4r0000gr/T//molpro.45z5jzhM2B/
 Wavefunction directory         : /Users/peterk/wfu/
 Main file repository           : /var/folders/2v/xbgp75_9785319ghcgb4zr4r0000gr/T//molpro.45z5jzhM2B/

 id        : peterk

 Nodes        nprocs
 pjk2022.local    1
 GA implementation: MPI file
 GA implementation (serial work in mppx): MPI file

 Using customized tuning parameters: mindgm=1; mindgv=20; mindgc=4; mindgr=1; noblas=0; minvec=7
 default implementation of scratch files=df  


 Variables initialized (1037), CPU time= 0.00 sec
 
 
 
 geometry={
 22
  C     0.7447222    0.0000000    0.0000000
  C     1.4787691   -1.1944594    0.0000000
  C     2.8667226   -1.1964878    0.0000000
  C     3.5730840    0.0000000    0.0000000
  C     2.8667226    1.1964878    0.0000000
  C     1.4787691    1.1944594    0.0000000
  C    -0.7447222    0.0000000    0.0000000
  C    -1.4787691   -1.1944594    0.0000000
  C    -2.8667226   -1.1964878    0.0000000
  C    -3.5730840    0.0000000    0.0000000
  C    -2.8667226    1.1964878    0.0000000
  C    -1.4787691    1.1944594    0.0000000
  H     0.9697085   -2.1465575    0.0000000
  H     3.3979977   -2.1399873    0.0000000
  H     4.6554610    0.0000000    0.0000000
  H     3.3979977    2.1399873    0.0000000
  H     0.9697085    2.1465575    0.0000000
  H    -0.9697085   -2.1465575    0.0000000
  H    -3.3979977   -2.1399873    0.0000000
  H    -4.6554610    0.0000000    0.0000000
  H    -3.3979977    2.1399873    0.0000000
  H    -0.9697085    2.1465575    0.0000000
 }
 basis=cc-pVTZ
 core,small
 
 
 hf; ccsd(t)
 
 
 
 {put,xml;noorbitals,nobasis}
 Commands initialized (841), CPU time= 0.01 sec, 716 directives.
 Default parameters read. Elapsed time= 0.06 sec

 Checking input...
 Passed
1


                                         ***  PROGRAM SYSTEM MOLPRO  ***
                                       Copyright, TTI GmbH Stuttgart, 2015
                                    Version 2023.1 linked Sat Jul 22 07:59:25 2023


 **********************************************************************************************************************************
 LABEL *                                                                                                                                                                 
  64 bit serial version                                                                  DATE: 02-Aug-23          TIME: 13:20:23  
 **********************************************************************************************************************************

 SHA1:             401d111a1dbfa49388eacdf0424f85138b2d30d0
 **********************************************************************************************************************************

 Memory per process:      3146 MW
 Total memory per node:   4194 MW
 Total GA space:          1049 MW

 GA preallocation disabled
 GA check enabled

 Geometry recognized as XYZ


 Variable memory set to 3145.7 MW

 SETTING BASIS          =    CC-PVTZ


 Recomputing integrals since basis changed


 Using spherical harmonics

 Library entry C      S cc-pVTZ              selected for orbital group  1
 Library entry C      P cc-pVTZ              selected for orbital group  1
 Library entry C      D cc-pVTZ              selected for orbital group  1
 Library entry C      F cc-pVTZ              selected for orbital group  1
 Library entry H      S cc-pVTZ              selected for orbital group  2
 Library entry H      P cc-pVTZ              selected for orbital group  2
 Library entry H      D cc-pVTZ              selected for orbital group  2


 PROGRAM * SEWARD (Integral evaluation for generally contracted gaussian basis sets)     Author: Roland Lindh, 1990

 Geometry written to block  1 of record 700


 Point group  D2h 



 ATOMIC COORDINATES

 NR  ATOM    CHARGE       X              Y              Z

   1  C       6.00    1.407320997    0.000000000    0.000000000
   2  C       6.00   -1.407320997    0.000000000    0.000000000
   3  C       6.00    2.794468601   -2.257201133    0.000000000
   4  C       6.00    2.794468601    2.257201133    0.000000000
   5  C       6.00   -2.794468601   -2.257201133    0.000000000
   6  C       6.00   -2.794468601    2.257201133    0.000000000
   7  C       6.00    5.417320589   -2.261034253    0.000000000
   8  C       6.00    5.417320589    2.261034253    0.000000000
   9  C       6.00   -5.417320589   -2.261034253    0.000000000
  10  C       6.00   -5.417320589    2.261034253    0.000000000
  11  C       6.00    6.752150180    0.000000000    0.000000000
  12  C       6.00   -6.752150180    0.000000000    0.000000000
  13  H       1.00    1.832483486   -4.056405786    0.000000000
  14  H       1.00    1.832483486    4.056405786    0.000000000
  15  H       1.00   -1.832483486   -4.056405786    0.000000000
  16  H       1.00   -1.832483486    4.056405786    0.000000000
  17  H       1.00    6.421285025   -4.043989907    0.000000000
  18  H       1.00    6.421285025    4.043989907    0.000000000
  19  H       1.00   -6.421285025   -4.043989907    0.000000000
  20  H       1.00   -6.421285025    4.043989907    0.000000000
  21  H       1.00    8.797546274    0.000000000    0.000000000
  22  H       1.00   -8.797546274    0.000000000    0.000000000

 Bond lengths in Bohr (Angstrom)

 1-2  2.814641994  1-3  2.649365099  1-4  2.649365099  2-5  2.649365099  2-6  2.649365099
     ( 1.489444400)     ( 1.401983634)     ( 1.401983634)     ( 1.401983634)     ( 1.401983634)

  3- 7  2.622854790   3-13  2.040233502   4- 8  2.622854790   4-14  2.040233502   5- 9  2.622854790
       ( 1.387954982)       ( 1.079645074)       ( 1.387954982)       ( 1.079645074)       ( 1.387954982)

  5-15  2.040233502   6-10  2.622854790   6-16  2.040233502   7-11  2.625651525   7-17  2.046185586
       ( 1.079645074)       ( 1.387954982)       ( 1.079645074)       ( 1.389434951)       ( 1.082794781)

  8-11  2.625651525   8-18  2.046185586   9-12  2.625651525   9-19  2.046185586  10-12  2.625651525
       ( 1.389434951)       ( 1.082794781)       ( 1.389434951)       ( 1.082794781)       ( 1.389434951)

 10-20  2.046185586  11-21  2.045396094  12-22  2.045396094
       ( 1.082794781)       ( 1.082377000)       ( 1.082377000)

 Bond angles

  1- 2- 5  121.57252160   1- 2- 6  121.57252160   1- 3- 7  121.65625544   1- 3-13  120.29529122

  1- 4- 8  121.65625544   1- 4-14  120.29529122   2- 1- 3  121.57252160   2- 1- 4  121.57252160

  2- 5- 9  121.65625544   2- 5-15  120.29529122   2- 6-10  121.65625544   2- 6-16  120.29529122

  3- 1- 4  116.85495679   3- 7-11  120.47227065   3- 7-17  119.46715876   4- 8-11  120.47227065

  4- 8-18  119.46715876   5- 2- 6  116.85495679   5- 9-12  120.47227065   5- 9-19  119.46715876

  6-10-12  120.47227065   6-10-20  119.46715876   7- 3-13  118.04845333   7-11- 8  118.88799102

  7-11-21  120.55600449   8- 4-14  118.04845333   8-11-21  120.55600449   9- 5-15  118.04845333

  9-12-10  118.88799102   9-12-22  120.55600449  10- 6-16  118.04845333  10-12-22  120.55600449

 11- 7-17  120.06057059  11- 8-18  120.06057059  12- 9-19  120.06057059  12-10-20  120.06057059

 NUCLEAR CHARGE:                   82
 NUMBER OF PRIMITIVE AOS:         734
 NUMBER OF SYMMETRY AOS:          664
 NUMBER OF CONTRACTIONS:          500   (   93Ag  +   93B3u +   77B2u +   77B1g +   45B1u +   45B2g +   35B3g +   35Au  )
 NUMBER OF INNER CORE ORBITALS:     0   (    0Ag  +    0B3u +    0B2u +    0B1g +    0B1u +    0B2g +    0B3g +    0Au  )
 NUMBER OF OUTER CORE ORBITALS:    12   (    4Ag  +    4B3u +    2B2u +    2B1g +    0B1u +    0B2g +    0B3g +    0Au  )
 NUMBER OF VALENCE ORBITALS:       58   (   13Ag  +   13B3u +   10B2u +   10B1g +    4B1u +    4B2g +    2B3g +    2Au  )


 NUCLEAR REPULSION ENERGY  600.31306901


 Eigenvalues of metric

         1 0.352E-04 0.311E-03 0.522E-03 0.613E-03 0.115E-02 0.132E-02 0.150E-02 0.164E-02
         2 0.259E-04 0.540E-04 0.173E-03 0.337E-03 0.567E-03 0.982E-03 0.108E-02 0.131E-02
         3 0.213E-03 0.319E-03 0.674E-03 0.104E-02 0.107E-02 0.134E-02 0.159E-02 0.173E-02
         4 0.370E-04 0.192E-03 0.476E-03 0.672E-03 0.756E-03 0.120E-02 0.123E-02 0.152E-02
         5 0.136E-01 0.216E-01 0.233E-01 0.254E-01 0.388E-01 0.458E-01 0.684E-01 0.782E-01
         6 0.949E-02 0.141E-01 0.205E-01 0.219E-01 0.288E-01 0.383E-01 0.426E-01 0.496E-01
         7 0.219E-01 0.232E-01 0.266E-01 0.545E-01 0.761E-01 0.863E-01 0.103E+00 0.179E+00
         8 0.160E-01 0.210E-01 0.230E-01 0.469E-01 0.578E-01 0.703E-01 0.967E-01 0.165E+00


 Contracted 2-electron integrals neglected if value below      1.0D-12
 AO integral compression algorithm  1   Integral accuracy      1.0D-12

     5042.864 MB (compressed) written to integral file ( 54.8%)


 NUMBER OF SORTED TWO-ELECTRON INTEGRALS: 1005149553.     BUFFER LENGTH:  32768
 NUMBER OF SEGMENTS:  32  SEGMENT LENGTH:   31999968      RECORD LENGTH: 524288

 Memory used in sort:      32.56 MW

 SORT1 READ  1150493856. AND WROTE   983776961. INTEGRALS IN   2832 RECORDS. CPU TIME:    40.82 SEC, REAL TIME:    88.68 SEC
 SORT2 READ   983776961. AND WROTE  1005149553. INTEGRALS IN  19237 RECORDS. CPU TIME:     7.29 SEC, REAL TIME:    15.37 SEC

 FILE SIZES:   FILE 1:  5078.4 MBYTE,  FILE 4: 11878.3 MBYTE,   TOTAL:  16956.7 MBYTE

 OPERATOR DM      FOR CENTER  0  COORDINATES:    0.000000    0.000000    0.000000


 **********************************************************************************************************************************
 DATASETS  * FILE   NREC   LENGTH (MB)   RECORD NAMES
              1      19     4390.08       500      610      700      900      950      970     1000      129      960     1100   
                                          VAR    BASINP    GEOM    SYMINP    ZMAT    AOBASIS   BASIS     P2S    ABASIS      S 
                                         1400     1410     1200     1210     1080     1600     1650     1300     1700   
                                           T        V       H0       H01     AOSYM     SMH    MOLCAS    ERIS     OPER   

 PROGRAMS   *        TOTAL       INT
 CPU TIMES  *       135.33    135.24
 REAL TIME  *       194.29 SEC
 DISK USED  *        15.79 GB
 **********************************************************************************************************************************


 Program * Restricted Hartree-Fock

 Orbital guess generated from atomic densities. Full valence occupancy:   17  17  12  12   4   4   2   2


 Initial occupancy:  11  10   7   7   2   2   1   1

 NELEC=   82   SYM=1   MS2= 0   THRE=1.0D-08   THRD=3.2D-06   THRG=3.2D-06  HFMA2=F  DIIS_START=2   DIIS_MAX=10   DIIS_INCORE=F

 Level shifts:    0.00 (CLOSED)    0.00 (OPEN)    0.30 (GAP_MIN)

 ITER           ETOT              DE          GRAD        DDIFF     DIIS  NEXP   TIME(IT)  TIME(TOT)  DIAG
   1     -460.28070387    -460.28070387     0.00D+00     0.91D-01     0     0       1.14      2.20    start
   2     -460.38211427      -0.10141040     0.50D-02     0.76D-02     1     0       1.17      3.37    diag
   3     -460.39321422      -0.01109995     0.18D-02     0.24D-02     2     0       1.17      4.54    diag
   4     -460.39494020      -0.00172598     0.65D-03     0.10D-02     3     0       1.15      5.69    diag
   5     -460.39498573      -0.00004553     0.12D-03     0.18D-03     4     0       1.16      6.85    diag
   6     -460.39499709      -0.00001136     0.54D-04     0.87D-04     5     0       1.17      8.02    diag
   7     -460.39499731      -0.00000023     0.48D-05     0.18D-04     6     0       1.16      9.18    diag
   8     -460.39499735      -0.00000003     0.17D-05     0.43D-05     7     0       1.16     10.34    fixocc
   9     -460.39499736      -0.00000001     0.90D-06     0.22D-05     8     0       1.14     11.48    diag
  10     -460.39499736      -0.00000000     0.40D-06     0.15D-05     9     0       1.16     12.64    diag/orth
  11     -460.39499736      -0.00000000     0.13D-06     0.25D-06     0     0       1.16     13.80    diag

 Final occupancy:  11  10   7   7   2   2   1   1

 !RHF STATE 1.1 Energy               -460.394997360168
  RHF One-electron energy           -1812.321016282184
  RHF Two-electron energy             751.612949912645
  RHF Kinetic energy                  459.840447953002
  RHF Nuclear energy                  600.313069009370
  RHF Virial quotient                  -1.001205960480

 !RHF STATE 1.1 Dipole moment           0.00000000     0.00000000     0.00000000
 Dipole moment /Debye                   0.00000000     0.00000000     0.00000000

 Orbital energies:

           1.1          2.1          3.1          4.1          5.1          6.1          7.1          8.1          9.1         10.1
    -11.248979   -11.234284   -11.232673   -11.231738    -1.170083    -1.054152    -0.854419    -0.724857    -0.660623    -0.589629

          11.1         12.1         13.1
     -0.489115     0.142706     0.175489

           1.2          2.2          3.2          4.2          5.2          6.2          7.2          8.2          9.2         10.2
    -11.248258   -11.234285   -11.232677   -11.231739    -1.142864    -0.984040    -0.792728    -0.679069    -0.612271    -0.516574

          11.2         12.2
      0.152005     0.196805

           1.3          2.3          3.3          4.3          5.3          6.3          7.3          8.3          9.3
    -11.234011   -11.232501    -1.022111    -0.846872    -0.643403    -0.597511    -0.508544     0.159684     0.206215

           1.4          2.4          3.4          4.4          5.4          6.4          7.4          8.4          9.4
    -11.234013   -11.232510    -1.010632    -0.804152    -0.598462    -0.574267    -0.474465     0.178649     0.275839

           1.5          2.5          3.5          4.5
     -0.528005    -0.379909     0.084761     0.305076

           1.6          2.6          3.6          4.6
     -0.491216    -0.293031     0.177343     0.381189

           1.7          2.7          3.7
     -0.342124     0.111736     0.452995

           1.8          2.8          3.8
     -0.334763     0.147133     0.487999


 HOMO      2.6    -0.293031 =      -7.9738eV
 LUMO      3.5     0.084761 =       2.3065eV
 LUMO-HOMO         0.377791 =      10.2802eV

 Orbitals saved in record  2100.2


 **********************************************************************************************************************************
 DATASETS  * FILE   NREC   LENGTH (MB)   RECORD NAMES
              1      19     4390.08       500      610      700      900      950      970     1000      129      960     1100   
                                          VAR    BASINP    GEOM    SYMINP    ZMAT    AOBASIS   BASIS     P2S    ABASIS      S 
                                         1400     1410     1200     1210     1080     1600     1650     1300     1700   
                                           T        V       H0       H01     AOSYM     SMH    MOLCAS    ERIS     OPER   

              2       4        1.38       700     1000      520     2100   
                                         GEOM     BASIS   MCVARS     RHF  

 PROGRAMS   *        TOTAL    HF-SCF       INT
 CPU TIMES  *       149.13     13.80    135.24
 REAL TIME  *       210.61 SEC
 DISK USED  *        15.79 GB
 **********************************************************************************************************************************


 PROGRAM * CCSD (Closed-shell coupled cluster)     Authors: C. Hampel, H.-J. Werner, 1991, M. Deegan, P.J. Knowles, 1992


 CORETYPE=SMALL

 Convergence thresholds:  THRVAR = 1.00D-08  THRDEN = 1.00D-06

 CCSD(T)     terms to be evaluated (factor= 1.000)


 Number of closed-shell orbitals:  41 (  11  10   7   7   2   2   1   1 )
 Number of external orbitals:     459 (  82  83  70  70  43  43  34  34 )

 Molecular orbitals read from record     2100.2  Type=RHF/CANONICAL  

 Number of N-1 electron functions:              41
 Number of N-2 electron functions:             861
 Number of singly external CSFs:              2952
 Number of doubly external CSFs:          23351997
 Total number of CSFs:                    23354950

 Length of J-op  integral file:               0.00 MB
 Length of K-op  integral file:               2.51 MB
 Length of 3-ext integral record:             0.00 MB

 Memory could be reduced to 591.48 Mwords without degradation in triples

 Integral transformation finished. Total CPU:  19.53 sec, npass=  1  Memory used: 205.31 MW

 Reference energy:                   -460.39499736

 MP2 singlet pair energy:              -1.30785922
 MP2 triplet pair energy:              -0.77076515
 MP2 correlation energy:               -2.07862438
 MP2 total energy:                   -462.47362174

 SCS-MP2 correlation energy:           -2.04901827   (PS=  1.200000  PT=  0.333333)
 SCS-MP2 total energy:               -462.44401563

 ITER.      SQ.NORM     CORR.ENERGY   TOTAL ENERGY   ENERGY CHANGE        DEN1      VAR(S)    VAR(P)  DIIS     TIME  TIME/IT
   1      1.63754350    -2.11051955  -462.50551691    -0.03189517     0.02141520  0.81D-02  0.16D-01  1  1   227.87    62.01
   2      1.68258725    -2.11585408  -462.51085144    -0.00533454    -0.04804919  0.12D-03  0.17D-02  2  2   288.93    63.67
   3      1.69692201    -2.11567522  -462.51067258     0.00017887    -0.00725796  0.56D-04  0.16D-03  3  3   350.21    64.20
   4      1.70389258    -2.11578343  -462.51078079    -0.00010822    -0.00263867  0.39D-05  0.26D-04  4  4   410.95    64.36
   5      1.70627638    -2.11586425  -462.51086161    -0.00008081    -0.00063416  0.44D-06  0.32D-05  5  5   472.09    64.63
   6      1.70689815    -2.11586050  -462.51085786     0.00000375    -0.00005779  0.76D-07  0.27D-06  6  6   532.76    64.76
   7      1.70699714    -2.11585806  -462.51085542     0.00000244    -0.00000574  0.91D-08  0.30D-07  6  1   592.17    64.37
   8      1.70702098    -2.11585918  -462.51085654    -0.00000112    -0.00000540  0.20D-08  0.38D-08  6  3   649.57    63.73
   9      1.70702776    -2.11585911  -462.51085647     0.00000007    -0.00000196  0.34D-09  0.46D-09  6  2   710.89    63.74
  10      1.70702846    -2.11585923  -462.51085659    -0.00000012     0.00000011  0.81D-10  0.79D-10  6  4   770.18    63.50

 Norm of t1 vector:      0.11336046      S-energy:     0.00000014      T1 diagnostic:  0.00885196
                                                                       D1 diagnostic:  0.02950403
                                                                       D2 diagnostic:  0.19357695 (internal)

 Doubles amplitudes (print threshold =  0.500E-01):

         I         J         SYM. A    SYM. B    A         B      T(IJ, AB)

        39        39         5         5         1         1     -0.05449802

   CPU time for triples:   1855.27 sec for i =  1 - 29 / 41 (~  36.3 % done)
   CPU time for triples:   1949.37 sec for i = 30 - 37 / 41 (~  74.0 % done)
   CPU time for triples:   1318.35 sec for i = 38 - 41 / 41 (  100.0 % done)

 Total CPU time for triples:   5122.99 sec


 RESULTS
 =======

  Reference energy                   -460.394997360169

  Correlated core orbitals:             1.1       2.1       3.1       4.1       1.2       2.2       3.2       4.2       1.3       2.3
                                        1.4       2.4
  Orbital energies:                   -11.2490  -11.2343  -11.2327  -11.2317  -11.2483  -11.2343  -11.2327  -11.2317  -11.2340  -11.2325
                                      -11.2340  -11.2325

  CCSD core-core energy                -0.125458605851
  CCSD core-valence energy             -0.074016511566
  CCSD valence correlation energy      -1.916384116212

  CCSD singlet pair energy             -1.425529588395
  CCSD triplet pair energy             -0.690329783620
  CCSD correlation energy              -2.115859233629

  Triples (T) contribution             -0.109798002609
  Total correlation energy             -2.225657236238

  CCSD total energy                  -462.510856593798
  CCSD[T] energy                     -462.622629275410
  CCSD-T energy                      -462.619758081569
 !CCSD(T) total energy               -462.620654596406

 Timing summary (sec):

 STEP                 CPU(USER)    SYS     CPU(TOT)    WALL
 Transformation         19.90      2.45     22.35     22.73
 CCSD iterations       751.00     25.94    776.94    635.79
 Triples              5122.99    234.53   5357.52   5580.01

 Program statistics:

 Available memory in ccsd:              3145721265
 Min. memory needed in ccsd:              52224293
 Max. memory used in ccsd:                74771172
 Max. memory used in cckext:              59017095 (10 integral passes)



 **********************************************************************************************************************************
 DATASETS  * FILE   NREC   LENGTH (MB)   RECORD NAMES
              1      20     6663.32       500      610      700      900      950      970     1000      129      960     1100   
                                          VAR    BASINP    GEOM    SYMINP    ZMAT    AOBASIS   BASIS     P2S    ABASIS      S 
                                         1400     1410     1200     1210     1080     1600     1650     1300     1700     1380   
                                           T        V       H0       H01     AOSYM     SMH    MOLCAS    ERIS     OPER     JKOP   

              2       4        1.38       700     1000      520     2100   
                                         GEOM     BASIS   MCVARS     RHF  

 PROGRAMS   *        TOTAL   CCSD(T)    HF-SCF       INT
 CPU TIMES  *      5893.81   5744.68     13.80    135.24
 REAL TIME  *      6449.18 SEC
 DISK USED  *        15.79 GB
 **********************************************************************************************************************************

 Dump information in style XML to xml output                                                                      

 Orbitals will not be exported.

 **********************************************************************************************************************************

 CCSD(T)/cc-pVTZ energy=   -462.620654596406

         CCSD(T)          HF-SCF
   -462.62065460   -460.39499736
 **********************************************************************************************************************************
 Molpro calculation terminated
