
 Working directory              : /var/folders/2v/xbgp75_9785319ghcgb4zr4r0000gr/T//molpro.KMujesNdCZ/
 Global scratch directory       : /var/folders/2v/xbgp75_9785319ghcgb4zr4r0000gr/T//molpro.KMujesNdCZ/
 Wavefunction directory         : /Users/peterk/wfu/
 Main file repository           : /var/folders/2v/xbgp75_9785319ghcgb4zr4r0000gr/T//molpro.KMujesNdCZ/

 id        : peterk

 Nodes        nprocs
 pjk2022.local    1
 GA implementation: MPI file
 GA implementation (serial work in mppx): MPI file

 Using customized tuning parameters: mindgm=1; mindgv=20; mindgc=4; mindgr=1; noblas=0; minvec=7
 default implementation of scratch files=df  


 Variables initialized (1037), CPU time= 0.00 sec
 
 
 
 geometry={
 14
    S   0.98779870405458      1.69086160103578     -0.05066348834743
    N   -1.61020626241202      1.29841557679330     -0.15110636422454
    N   -0.45937754110138     -0.56434099610713      0.46247752051631
    C   -0.39187803613607      0.81146297110409      0.08312164825440
    H   -2.39944662163556      0.68603673671140     -0.07469157169080
    H   -1.71732706237349      2.24968276800537     -0.44737711775701
    H   -0.09355347324586     -0.62431146031493      1.40484970021227
    C   0.35853015001570     -1.43528095502525     -0.38652433348388
    C   0.17576382702346     -2.87823112876741      0.01789791268898
    H   0.02638680315895     -1.29125299608293     -1.41240020244336
    H   1.41001052507674     -1.14570964346512     -0.34147789184360
    H   -0.86056658362450     -3.18390849009666     -0.09862125903260
    H   0.79399441235166     -3.52647688600623     -0.59574030773924
    H   0.46967115884778     -3.03394709778427      1.05528575489050
 }
 basis=cc-pVDZ
 core,small
 
 
 hf; papt;mp4
 
 
 
 {put,xml;noorbitals,nobasis}
 Commands initialized (841), CPU time= 0.01 sec, 716 directives.
 Default parameters read. Elapsed time= 0.05 sec

 Checking input...
 Passed
1


                                         ***  PROGRAM SYSTEM MOLPRO  ***
                                       Copyright, TTI GmbH Stuttgart, 2015
                                    Version 2023.1 linked Sat Jul 22 07:59:25 2023


 **********************************************************************************************************************************
 LABEL *                                                                                                                                                                 
  64 bit serial version                                                                  DATE: 01-Aug-23          TIME: 22:57:31  
 **********************************************************************************************************************************

 SHA1:             401d111a1dbfa49388eacdf0424f85138b2d30d0
 **********************************************************************************************************************************

 Memory per process:      3146 MW
 Total memory per node:   4194 MW
 Total GA space:          1049 MW

 GA preallocation disabled
 GA check enabled

 Geometry recognized as XYZ


 Variable memory set to 3145.7 MW

 SETTING BASIS          =    CC-PVDZ


 Recomputing integrals since basis changed


 Using spherical harmonics

 Library entry S      S cc-pVDZ              selected for orbital group  1
 Library entry S      P cc-pVDZ              selected for orbital group  1
 Library entry S      D cc-pVDZ              selected for orbital group  1
 Library entry N      S cc-pVDZ              selected for orbital group  2
 Library entry N      P cc-pVDZ              selected for orbital group  2
 Library entry N      D cc-pVDZ              selected for orbital group  2
 Library entry C      S cc-pVDZ              selected for orbital group  3
 Library entry C      P cc-pVDZ              selected for orbital group  3
 Library entry C      D cc-pVDZ              selected for orbital group  3
 Library entry H      S cc-pVDZ              selected for orbital group  4
 Library entry H      P cc-pVDZ              selected for orbital group  4


 PROGRAM * SEWARD (Integral evaluation for generally contracted gaussian basis sets)     Author: Roland Lindh, 1990

 Geometry written to block  1 of record 700


 Point group  C1  



 ATOMIC COORDINATES

 NR  ATOM    CHARGE       X              Y              Z

   1  S      16.00    1.866669017    3.195265341   -0.095740117
   2  N       7.00   -3.042848840    2.453649836   -0.285549644
   3  N       7.00   -0.868097740   -1.066449924    0.873955853
   4  C       6.00   -0.740542163    1.533442776    0.157077150
   5  H       1.00   -4.534296966    1.296421544   -0.141146614
   6  H       1.00   -3.245277814    4.251284299   -0.845420227
   7  H       1.00   -0.176790442   -1.179777676    2.654781180
   8  C       6.00    0.677523791   -2.712287917   -0.730425131
   9  C       6.00    0.332145496   -5.439068557    0.033822153
  10  H       1.00    0.049863831   -2.440114520   -2.669049561
  11  H       1.00    2.664533725   -2.165077444   -0.645299693
  12  H       1.00   -1.626235155   -6.016715052   -0.186367170
  13  H       1.00    1.500431984   -6.664075499   -1.125786023
  14  H       1.00    0.887549859   -5.733329091    1.994201060

 Bond lengths in Bohr (Angstrom)

 1-4  3.102115559  2-4  2.518593963  2-5  1.893263602  2-6  1.893653142  3-4  2.699931026
     ( 1.641568860)     ( 1.332782529)     ( 1.001871952)     ( 1.002078088)     ( 1.428741970)

  3- 7  1.913658226   3- 8  2.769795472   8- 9  2.852839416   8-10  2.055796698   8-11  2.062739470
       ( 1.012664323)       ( 1.465712643)       ( 1.509657606)       ( 1.087880763)       ( 1.091554719)

  9-12  2.053634238   9-13  2.051883635   9-14  2.058676450
       ( 1.086736438)       ( 1.085810059)       ( 1.089404662)

 Bond angles

  1-4-2  123.93384259   1-4-3  125.25406779   2-4-3  110.81207183   3-8-9  110.19536626

  3- 8-10  107.28862889   3- 8-11  110.85488901   4- 2- 5  118.90685175   4- 2- 6  119.76987664

  4-3-7  106.68121101   4-3-8  113.08088762   5-2-6  121.23710752   7-3-8  107.59330572

  8- 9-12  110.82884716   8- 9-13  110.50616541   8- 9-14  111.04235178   9- 8-10  110.01108238

  9- 8-11  111.04653176  10- 8-11  107.33137431  12- 9-13  108.32704282  12- 9-14  108.61262649

 13- 9-14  107.41039509

 NUCLEAR CHARGE:                   56
 NUMBER OF PRIMITIVE AOS:         233
 NUMBER OF SYMMETRY AOS:          227
 NUMBER OF CONTRACTIONS:          128   (  128A   )
 NUMBER OF INNER CORE ORBITALS:     1   (    1A   )
 NUMBER OF OUTER CORE ORBITALS:     9   (    9A   )
 NUMBER OF VALENCE ORBITALS:       32   (   32A   )


 NUCLEAR REPULSION ENERGY  294.60900077


 Eigenvalues of metric

         1 0.315E-02 0.380E-02 0.474E-02 0.588E-02 0.836E-02 0.183E-01 0.204E-01 0.242E-01


 Contracted 2-electron integrals neglected if value below      1.0D-11
 AO integral compression algorithm  1   Integral accuracy      1.0D-11

     132.383 MB (compressed) written to integral file ( 46.3%)


 NUMBER OF SORTED TWO-ELECTRON INTEGRALS:   34084896.     BUFFER LENGTH:  32768
 NUMBER OF SEGMENTS:   3  SEGMENT LENGTH:   15998004      RECORD LENGTH: 524288

 Memory used in sort:      16.56 MW

 SORT1 READ    35843054. AND WROTE    31260994. INTEGRALS IN     91 RECORDS. CPU TIME:     0.26 SEC, REAL TIME:     0.33 SEC
 SORT2 READ    31260994. AND WROTE    34084896. INTEGRALS IN    505 RECORDS. CPU TIME:     0.28 SEC, REAL TIME:     0.33 SEC

 FILE SIZES:   FILE 1:   163.2 MBYTE,  FILE 4:   381.7 MBYTE,   TOTAL:    545.0 MBYTE

 OPERATOR DM      FOR CENTER  0  COORDINATES:    0.000000    0.000000    0.000000


 **********************************************************************************************************************************
 DATASETS  * FILE   NREC   LENGTH (MB)   RECORD NAMES
              1      19      142.47       500      610      700      900      950      970     1000      129      960     1100   
                                          VAR    BASINP    GEOM    SYMINP    ZMAT    AOBASIS   BASIS     P2S    ABASIS      S 
                                         1400     1410     1200     1210     1080     1600     1650     1300     1700   
                                           T        V       H0       H01     AOSYM     SMH    MOLCAS    ERIS     OPER   

 PROGRAMS   *        TOTAL       INT
 CPU TIMES  *         2.18      2.08
 REAL TIME  *         2.87 SEC
 DISK USED  *       520.29 MB
 **********************************************************************************************************************************


 Program * Restricted Hartree-Fock

 Orbital guess generated from atomic densities. Full valence occupancy:   42

 Initial occupancy:  28

 NELEC=   56   SYM=1   MS2= 0   THRE=1.0D-08   THRD=3.2D-06   THRG=3.2D-06  HFMA2=F  DIIS_START=2   DIIS_MAX=10   DIIS_INCORE=F

 Level shifts:    0.00 (CLOSED)    0.00 (OPEN)    0.30 (GAP_MIN)

 ITER           ETOT              DE          GRAD        DDIFF     DIIS  NEXP   TIME(IT)  TIME(TOT)  DIAG
   1     -624.60455844    -624.60455844     0.00D+00     0.11D+00     0     0       0.14      0.28    start
   2     -624.68186727      -0.07730883     0.51D-02     0.14D-01     1     0       0.15      0.43    diag
   3     -624.70224798      -0.02038071     0.26D-02     0.51D-02     2     0       0.14      0.57    diag
   4     -624.70485009      -0.00260211     0.82D-03     0.17D-02     3     0       0.15      0.72    diag
   5     -624.70503299      -0.00018290     0.18D-03     0.45D-03     4     0       0.14      0.86    diag
   6     -624.70505874      -0.00002575     0.61D-04     0.18D-03     5     0       0.15      1.01    diag
   7     -624.70506218      -0.00000344     0.22D-04     0.63D-04     6     0       0.14      1.15    diag
   8     -624.70506259      -0.00000041     0.69D-05     0.24D-04     7     0       0.15      1.30    fixocc
   9     -624.70506262      -0.00000003     0.19D-05     0.60D-05     8     0       0.14      1.44    diag
  10     -624.70506262      -0.00000001     0.70D-06     0.26D-05     9     0       0.15      1.59    diag/orth
  11     -624.70506262      -0.00000000     0.31D-06     0.86D-06     0     0       0.14      1.73    diag

 Final occupancy:  28

 !RHF STATE 1.1 Energy               -624.705062624203
  RHF One-electron energy           -1442.560447452182
  RHF Two-electron energy             523.246384054006
  RHF Kinetic energy                  624.643532149639
  RHF Nuclear energy                  294.609000773972
  RHF Virial quotient                  -1.000098504941

 !RHF STATE 1.1 Dipole moment          -1.31251272    -0.73377484     0.03247475
 Dipole moment /Debye                  -3.33607458    -1.86506961     0.08254258

 Orbital energies:

           1.1          2.1          3.1          4.1          5.1          6.1          7.1          8.1          9.1         10.1
    -91.887103   -15.609673   -15.571415   -11.370196   -11.261148   -11.226624    -8.892455    -6.574905    -6.571934    -6.570753

          11.1         12.1         13.1         14.1         15.1         16.1         17.1         18.1         19.1         20.1
     -1.301606    -1.201415    -1.024219    -0.972029    -0.852596    -0.803407    -0.738675    -0.669215    -0.657921    -0.609711

          21.1         22.1         23.1         24.1         25.1         26.1         27.1         28.1         29.1         30.1
     -0.549423    -0.532583    -0.521251    -0.505803    -0.499491    -0.408856    -0.330263    -0.319169     0.126986     0.173745


 HOMO     28.1    -0.319169 =      -8.6850eV
 LUMO     29.1     0.126986 =       3.4555eV
 LUMO-HOMO         0.446155 =      12.1405eV

 Orbitals saved in record  2100.2


 **********************************************************************************************************************************
 DATASETS  * FILE   NREC   LENGTH (MB)   RECORD NAMES
              1      19      142.47       500      610      700      900      950      970     1000      129      960     1100   
                                          VAR    BASINP    GEOM    SYMINP    ZMAT    AOBASIS   BASIS     P2S    ABASIS      S 
                                         1400     1410     1200     1210     1080     1600     1650     1300     1700   
                                           T        V       H0       H01     AOSYM     SMH    MOLCAS    ERIS     OPER   

              2       4        0.86       700     1000      520     2100   
                                         GEOM     BASIS   MCVARS     RHF  

 PROGRAMS   *        TOTAL    HF-SCF       INT
 CPU TIMES  *         3.91      1.74      2.08
 REAL TIME  *         4.74 SEC
 DISK USED  *       520.29 MB
 **********************************************************************************************************************************


 PROGRAM * PAPT (Closed-shell)     Authors: C. Hampel, H.-J. Werner, 1991, P.J. Knowles, 2021


 CORETYPE=SMALL

 Convergence thresholds:  THRVAR = 1.00D-08  THRDEN = 1.00D-06

 Number of core orbitals:           1 (   1 )
 Number of closed-shell orbitals:  27 (  27 )
 Number of external orbitals:     100 ( 100 )

 Molecular orbitals read from record     2100.2  Type=RHF/CANONICAL  

 Checking core orbitals using projection, core_type=SMALL
 Threshold for active space selection:  0.30


  Number of target functions:              1

 Number of N-1 electron functions:              27
 Number of N-2 electron functions:             378
 Number of singly external CSFs:              2700
 Number of doubly external CSFs:           3646350
 Total number of CSFs:                     3649051

 Length of J-op  integral file:               0.00 MB
 Length of K-op  integral file:               1.19 MB

 Integral transformation finished. Total CPU:   1.08 sec, npass=  1  Memory used:  10.24 MW

 Reference energy:                   -624.70506262

                        CORR.ENERGY   TOTAL ENERGY   ENERGY CHANGE
 MP2:                   -0.90435305  -625.60941568    -0.90435305

 SCS-MP2 correlation energy:           -0.88590564   (PS=  1.200000  PT=  0.333333)
 SCS-MP2 total energy:               -625.59096826
 Iteration:   1     0.2134D+00
 Iteration:   2     0.5375D+00
 Iteration:   3     0.8534D-01
 Iteration:   4     0.2251D+00
 Iteration:   5     0.3570D-01
 Iteration:   6     0.9673D-01
 Iteration:   7     0.2125D-01
 Iteration:   8     0.9376D-01
 Iteration:   9     0.1446D-01
 Iteration:  10     0.1397D-01
 Iteration:  11     0.1322D-01
 Iteration:  12     0.5151D-02
 Iteration:  13     0.7412D-01
 Iteration:  14     0.2747D-02
 Iteration:  15     0.4939D-02
 Iteration:  16     0.1381D-02
 Iteration:  17     0.1319D-02
 Iteration:  18     0.1438D-02
 Iteration:  19     0.5894D-03
 Iteration:  20     0.1215D-02
 Iteration:  21     0.3783D-03
 Iteration:  22     0.4228D-03
 Iteration:  23     0.2469D-03
 Iteration:  24     0.2024D-03
 Iteration:  25     0.8014D-04
 PAPT operator written to  7000.1
 PAPT orbitals and eigenvalues written to  7000.2

 MP3(D):                -0.95038286  -625.65544548    -0.04602981



 RESULTS
 =======

  Reference energy                   -624.705062624206

  Correlated core orbitals:             2.1       3.1       4.1       5.1       6.1       7.1       8.1       9.1      10.1
  Orbital energies:                   -15.6097  -15.5714  -11.3702  -11.2611  -11.2266   -8.8925   -6.5749   -6.5719   -6.5708

  MP3 core-core energy                 -0.006870968059
  MP3 core-valence energy              -0.012751412094
  MP3 valence correlation energy       -0.930760480297

  MP3 singlet pair energy              -0.625964321201
  MP3 triplet pair energy              -0.324418539249
  MP3 correlation energy               -0.950382860451

 !MP3 total energy                   -625.655445484656

 Timing summary (sec):

 STEP                 CPU(USER)    SYS     CPU(TOT)    WALL
 Transformation          1.38      0.13      1.51      1.54
 CCSD iterations        40.26      3.26     43.52    204.96

 Program statistics:

 Available memory in ccsd:              3145725056
 Min. memory needed in ccsd:               9487275
 Max. memory used in ccsd:                12827607
 Max. memory used in cckext:              12789552 ( 1 integral passes)



 **********************************************************************************************************************************
 DATASETS  * FILE   NREC   LENGTH (MB)   RECORD NAMES
              1      21      213.85       500      610      700      900      950      970     1000      129      960     1100   
                                          VAR    BASINP    GEOM    SYMINP    ZMAT    AOBASIS   BASIS     P2S    ABASIS      S 
                                         1400     1410     1200     1210     1080     1600     1650     1300     1700     1380   
                                           T        V       H0       H01     AOSYM     SMH    MOLCAS    ERIS     OPER     JKOP   
                                         7000   
                                        PAPT AO    

              2       5        1.33       700     1000      520     2100     7000   
                                         GEOM     BASIS   MCVARS     RHF     PAPT   

 PROGRAMS   *        TOTAL      PAPT    HF-SCF       INT
 CPU TIMES  *        41.56     37.65      1.74      2.08
 REAL TIME  *       211.29 SEC
 DISK USED  *       520.29 MB
 **********************************************************************************************************************************


 PROGRAM * MP4 (Closed-shell)     Authors: C. Hampel, H.-J. Werner, 1991, M. Deegan, P.J. Knowles, 1992


 CORETYPE=SMALL

 Convergence thresholds:  THRVAR = 1.00D-08  THRDEN = 1.00D-06

 MP4(T)     terms to be evaluated (factor= 0.000)


 Number of core orbitals:           1 (   1 )
 Number of closed-shell orbitals:  27 (  27 )
 Number of external orbitals:     100 ( 100 )

 Molecular orbitals read from record     7000.2  Type=PAPT/CANONICAL (state 1.1)

 Checking core orbitals using projection, core_type=SMALL
 Threshold for active space selection:  0.30


  Number of target functions:              1

 Number of N-1 electron functions:              27
 Number of N-2 electron functions:             378
 Number of singly external CSFs:              2700
 Number of doubly external CSFs:           3646350
 Total number of CSFs:                     3649051

 Length of J-op  integral file:               0.00 MB
 Length of K-op  integral file:               1.19 MB

 Memory could be reduced to 38.73 Mwords without degradation in triples

 Integral transformation finished. Total CPU:   1.82 sec, npass=  1  Memory used:  39.83 MW
 Orbital energies read from record       7000.2  Type=PAPT/CANONICAL (state 1.1)

 Reference energy:                   -624.70506262

                        CORR.ENERGY   TOTAL ENERGY   ENERGY CHANGE
 MP2:                   -0.95992310  -625.66498572    -0.95992310

 SCS-MP2 correlation energy:           -0.94601674   (PS=  1.200000  PT=  0.333333)
 SCS-MP2 total energy:               -625.65107936

 MP3(D):                -0.96039740  -625.66546002    -0.00047430
 MP4(DQ):               -0.95287801  -625.65794063     0.00751939
 MP4(SDQ):              -0.96066247  -625.66572510    -0.00778447

 Norm of t1 vector:      0.08471715      S-energy:    -0.00778447      T1 diagnostic:  0.00815191

 Largest off-diagonal element in interal  block of Fock matrix:  0.11D+00
 Largest off-diagonal element in external block of Fock matrix:  0.12D+00


 Total CPU time for triples:    121.75 sec


 RESULTS
 =======

  Reference energy                   -624.705062624206

  Correlated core orbitals:             2.1       3.1       4.1       5.1       6.1       7.1       8.1       9.1      10.1
  Orbital energies:                   -15.9887  -16.0342  -11.4934  -11.3631  -11.3010   -9.4350   -6.9124   -7.0335   -7.0856

  MP4(SDQ) core-core energy            -0.006934132006
  MP4(SDQ) core-valence energy         -0.012642655858
  MP4(SDQ) valence correlation ener    -0.941085686969

  MP4(SDQ) singlet pair energy         -0.629550022882
  MP4(SDQ) triplet pair energy         -0.323327986627
  MP4(SDQ) correlation energy          -0.960662474833

  Triples contribution                 -0.035993021126
  Total correlation energy             -0.996655495959

  MP4(SDQ) total energy              -625.665725099039
 !MP4(SDTQ) total energy             -625.701718120165

 Timing summary (sec):

 STEP                 CPU(USER)    SYS     CPU(TOT)    WALL
 Transformation          2.11      0.33      2.44      2.63
 CCSD iterations        60.97      1.26     62.23     22.43
 Triples               121.75     12.38    134.13    144.44

 Program statistics:

 Available memory in ccsd:              3145725056
 Min. memory needed in ccsd:               9487275
 Max. memory used in ccsd:                12827607
 Max. memory used in cckext:              12789552 ( 1 integral passes)



 **********************************************************************************************************************************
 DATASETS  * FILE   NREC   LENGTH (MB)   RECORD NAMES
              1      22      317.88       500      610      700      900      950      970     1000      129      960     1100   
                                          VAR    BASINP    GEOM    SYMINP    ZMAT    AOBASIS   BASIS     P2S    ABASIS      S 
                                         1400     1410     1200     1210     1080     1600     1650     1300     1700     1380   
                                           T        V       H0       H01     AOSYM     SMH    MOLCAS    ERIS     OPER     JKOP   
                                         7000     1380(1)
                                        PAPT AO   JKOP   

              2       5        1.33       700     1000      520     2100     7000   
                                         GEOM     BASIS   MCVARS     RHF     PAPT   

 PROGRAMS   *        TOTAL       MP4      PAPT    HF-SCF       INT
 CPU TIMES  *       184.75    143.19     37.65      1.74      2.08
 REAL TIME  *       380.84 SEC
 DISK USED  *       637.92 MB
 **********************************************************************************************************************************

 Dump information in style XML to xml output                                                                      

 Orbitals will not be exported.

 **********************************************************************************************************************************

 MP4/cc-pVDZ energy=   -625.701718120165

             MP4            PAPT          HF-SCF
   -625.70171812   -625.65544548   -624.70506262
 **********************************************************************************************************************************
 Molpro calculation terminated
