
 Working directory              : /var/folders/2v/xbgp75_9785319ghcgb4zr4r0000gr/T//molpro.fDW3A4VesO/
 Global scratch directory       : /var/folders/2v/xbgp75_9785319ghcgb4zr4r0000gr/T//molpro.fDW3A4VesO/
 Wavefunction directory         : /Users/peterk/wfu/
 Main file repository           : /var/folders/2v/xbgp75_9785319ghcgb4zr4r0000gr/T//molpro.fDW3A4VesO/

 id        : peterk

 Nodes        nprocs
 pjk2022.local    1
 GA implementation: MPI file
 GA implementation (serial work in mppx): MPI file

 Using customized tuning parameters: mindgm=1; mindgv=20; mindgc=4; mindgr=1; noblas=0; minvec=7
 default implementation of scratch files=df  


 Variables initialized (1037), CPU time= 0.00 sec
 
 
 
 geometry={
 14
    S   0.66677564042217      2.05437369372826      0.14977685320868
    N   -1.62081432833388      0.80292358760807     -0.02554570859412
    N   0.24495718218741     -0.52424926464673     -0.47133129537914
    C   -0.28033596794244      0.75225082307584     -0.12048620095292
    H   -2.18417445531290     -0.02032755647558     -0.11685858131604
    H   -2.05472923451931      1.65770956972555      0.26621960191335
    H   -0.02818719149709     -0.76360303086743     -1.41523482766293
    C   -0.07866698938617     -1.59927786046656      0.45900259148440
    C   0.51260491184855     -2.90920938509984     -0.01005743723088
    H   0.34555462453577     -1.32170941543592      1.42179560735136
    H   -1.15768883356433     -1.73007712243441      0.61658654065119
    H   1.59476390318716     -2.85060081564529     -0.07180519069143
    H   0.24448098693695     -3.70870853294791      0.67442803809034
    H   0.12764975143810     -3.17768469011805     -0.99299999087185
 }
 basis=cc-pVTZ
 core,small
 
 
 hf; mp4
 
 
 
 {put,xml;noorbitals,nobasis}
 Commands initialized (841), CPU time= 0.00 sec, 716 directives.
 Default parameters read. Elapsed time= 0.06 sec

 Checking input...
 Passed
1


                                         ***  PROGRAM SYSTEM MOLPRO  ***
                                       Copyright, TTI GmbH Stuttgart, 2015
                                    Version 2023.1 linked Sat Jul 22 07:59:25 2023


 **********************************************************************************************************************************
 LABEL *                                                                                                                                                                 
  64 bit serial version                                                                  DATE: 01-Aug-23          TIME: 16:15:20  
 **********************************************************************************************************************************

 SHA1:             401d111a1dbfa49388eacdf0424f85138b2d30d0
 **********************************************************************************************************************************

 Memory per process:      3146 MW
 Total memory per node:   4194 MW
 Total GA space:          1049 MW

 GA preallocation disabled
 GA check enabled

 Geometry recognized as XYZ


 Variable memory set to 3145.7 MW

 SETTING BASIS          =    CC-PVTZ


 Recomputing integrals since basis changed


 Using spherical harmonics

 Library entry S      S cc-pVTZ              selected for orbital group  1
 Library entry S      P cc-pVTZ              selected for orbital group  1
 Library entry S      D cc-pVTZ              selected for orbital group  1
 Library entry S      F cc-pVTZ              selected for orbital group  1
 Library entry N      S cc-pVTZ              selected for orbital group  2
 Library entry N      P cc-pVTZ              selected for orbital group  2
 Library entry N      D cc-pVTZ              selected for orbital group  2
 Library entry N      F cc-pVTZ              selected for orbital group  2
 Library entry C      S cc-pVTZ              selected for orbital group  3
 Library entry C      P cc-pVTZ              selected for orbital group  3
 Library entry C      D cc-pVTZ              selected for orbital group  3
 Library entry C      F cc-pVTZ              selected for orbital group  3
 Library entry H      S cc-pVTZ              selected for orbital group  4
 Library entry H      P cc-pVTZ              selected for orbital group  4
 Library entry H      D cc-pVTZ              selected for orbital group  4


 PROGRAM * SEWARD (Integral evaluation for generally contracted gaussian basis sets)     Author: Roland Lindh, 1990

 Geometry written to block  1 of record 700


 Point group  C1  



 ATOMIC COORDINATES

 NR  ATOM    CHARGE       X              Y              Z

   1  S      16.00    1.260023347    3.882203639    0.283037232
   2  N       7.00   -3.062895179    1.517305680   -0.048274393
   3  N       7.00    0.462901987   -0.990687531   -0.890687062
   4  C       6.00   -0.529758202    1.421548033   -0.227685922
   5  H       1.00   -4.127491529   -0.038413515   -0.220830714
   6  H       1.00   -3.882875514    3.132617081    0.503082137
   7  H       1.00   -0.053266072   -1.443000596   -2.674406226
   8  C       6.00   -0.148659065   -3.022197153    0.867389188
   9  C       6.00    0.968682894   -5.497608977   -0.019005802
  10  H       1.00    0.653003601   -2.497668812    2.686804303
  11  H       1.00   -2.187714833   -3.269371936    1.165179694
  12  H       1.00    3.013667010   -5.386854832   -0.135692145
  13  H       1.00    0.462002108   -7.008443403    1.274484283
  14  H       1.00    0.241223070   -6.004953775   -1.876498025

 Bond lengths in Bohr (Angstrom)

 1-4  3.085284776  2-4  2.541287266  2-5  1.892987924  2-6  1.893566131  3-4  2.691435524
     ( 1.632662392)     ( 1.344791308)     ( 1.001726070)     ( 1.002032044)     ( 1.424246344)

  3- 7  1.911196125   3- 8  2.755334892   8- 9  2.856888662   8-10  2.056225759   8-11  2.075457295
       ( 1.011361435)       ( 1.458060433)       ( 1.511800374)       ( 1.088107812)       ( 1.098284703)

  9-12  2.051302567   9-13  2.052428484   9-14  2.058366803
       ( 1.085502571)       ( 1.086098381)       ( 1.089240804)

 Bond angles

  1-4-2  122.44592397   1-4-3  122.79495239   2-4-3  114.75897312   3-8-9  110.73663366

  3- 8-10  106.85583415   3- 8-11  113.41704826   4- 2- 5  121.54600374   4- 2- 6  118.96965253

  4-3-7  110.02382613   4-3-8  114.94669489   5-2-6  118.95183468   7-3-8  111.16567019

  8- 9-12  111.14726826   8- 9-13  110.22688563   8- 9-14  110.81378384   9- 8-10  110.06485234

  9- 8-11  109.00015869  10- 8-11  106.64587772  12- 9-13  108.76593910  12- 9-14  108.31871862

 13- 9-14  107.45971685

 NUCLEAR CHARGE:                   56
 NUMBER OF PRIMITIVE AOS:         435
 NUMBER OF SYMMETRY AOS:          397
 NUMBER OF CONTRACTIONS:          296   (  296A   )
 NUMBER OF INNER CORE ORBITALS:     1   (    1A   )
 NUMBER OF OUTER CORE ORBITALS:     9   (    9A   )
 NUMBER OF VALENCE ORBITALS:       32   (   32A   )


 NUCLEAR REPULSION ENERGY  292.83857889


 Eigenvalues of metric

         1 0.534E-03 0.820E-03 0.824E-03 0.975E-03 0.112E-02 0.125E-02 0.137E-02 0.139E-02


 Contracted 2-electron integrals neglected if value below      1.0D-11
 AO integral compression algorithm  1   Integral accuracy      1.0D-11

     2966.159 MB (compressed) written to integral file ( 37.4%)


 NUMBER OF SORTED TWO-ELECTRON INTEGRALS:  966086946.     BUFFER LENGTH:  32768
 NUMBER OF SEGMENTS:  61  SEGMENT LENGTH:   15999984      RECORD LENGTH: 262144

 Memory used in sort:      16.29 MW

 SORT1 READ   990252881. AND WROTE   770618282. INTEGRALS IN   4442 RECORDS. CPU TIME:     7.68 SEC, REAL TIME:    10.06 SEC
 SORT2 READ   770618282. AND WROTE   966086946. INTEGRALS IN  11315 RECORDS. CPU TIME:     5.25 SEC, REAL TIME:     9.85 SEC

 FILE SIZES:   FILE 1:  2999.6 MBYTE,  FILE 4:  9315.6 MBYTE,   TOTAL:  12315.2 MBYTE

 OPERATOR DM      FOR CENTER  0  COORDINATES:    0.000000    0.000000    0.000000


 **********************************************************************************************************************************
 DATASETS  * FILE   NREC   LENGTH (MB)   RECORD NAMES
              1      19     2632.37       500      610      700      900      950      970     1000      129      960     1100   
                                          VAR    BASINP    GEOM    SYMINP    ZMAT    AOBASIS   BASIS     P2S    ABASIS      S 
                                         1400     1410     1200     1210     1080     1600     1650     1300     1700   
                                           T        V       H0       H01     AOSYM     SMH    MOLCAS    ERIS     OPER   

 PROGRAMS   *        TOTAL       INT
 CPU TIMES  *        33.78     33.69
 REAL TIME  *        43.51 SEC
 DISK USED  *        11.47 GB
 **********************************************************************************************************************************


 Program * Restricted Hartree-Fock

 Orbital guess generated from atomic densities. Full valence occupancy:   42

 Initial occupancy:  28

 NELEC=   56   SYM=1   MS2= 0   THRE=1.0D-08   THRD=3.2D-06   THRG=3.2D-06  HFMA2=F  DIIS_START=2   DIIS_MAX=10   DIIS_INCORE=F

 Level shifts:    0.00 (CLOSED)    0.00 (OPEN)    0.30 (GAP_MIN)

 ITER           ETOT              DE          GRAD        DDIFF     DIIS  NEXP   TIME(IT)  TIME(TOT)  DIAG
   1     -624.66801041    -624.66801041     0.00D+00     0.48D-01     0     0       4.73      8.64    start
   2     -624.74985021      -0.08183980     0.32D-02     0.56D-02     1     0       4.51     13.15    diag
   3     -624.77181060      -0.02196040     0.17D-02     0.19D-02     2     0       4.54     17.69    diag
   4     -624.77463893      -0.00282833     0.52D-03     0.63D-03     3     0       4.42     22.11    diag
   5     -624.77490664      -0.00026771     0.14D-03     0.20D-03     4     0       4.91     27.02    diag
   6     -624.77494142      -0.00003478     0.43D-04     0.88D-04     5     0       4.46     31.48    diag
   7     -624.77494573      -0.00000431     0.15D-04     0.30D-04     6     0       4.57     36.05    diag
   8     -624.77494626      -0.00000053     0.54D-05     0.11D-04     7     0       4.29     40.34    fixocc
   9     -624.77494630      -0.00000003     0.13D-05     0.28D-05     8     0       4.28     44.62    diag
  10     -624.77494630      -0.00000000     0.45D-06     0.81D-06     9     0       4.24     48.86    diag/orth
  11     -624.77494630      -0.00000000     0.15D-06     0.26D-06     0     0       4.97     53.83    diag

 Final occupancy:  28

 !RHF STATE 1.1 Energy               -624.774946301306
  RHF One-electron energy           -1438.938771942375
  RHF Two-electron energy             521.325246753081
  RHF Kinetic energy                  624.608356247054
  RHF Nuclear energy                  292.838578887989
  RHF Virial quotient                  -1.000266711216

 !RHF STATE 1.1 Dipole moment          -1.66992285    -1.48644183    -0.14845022
 Dipole moment /Debye                  -4.24452052    -3.77815828    -0.37732283

 Orbital energies:

           1.1          2.1          3.1          4.1          5.1          6.1          7.1          8.1          9.1         10.1
    -91.890798   -15.603691   -15.568358   -11.369980   -11.271053   -11.227179    -8.896097    -6.577439    -6.575888    -6.574928

          11.1         12.1         13.1         14.1         15.1         16.1         17.1         18.1         19.1         20.1
     -1.302024    -1.198649    -1.035328    -0.977008    -0.855586    -0.802179    -0.743454    -0.699756    -0.654640    -0.620110

          21.1         22.1         23.1         24.1         25.1         26.1         27.1         28.1         29.1         30.1
     -0.563279    -0.537208    -0.522066    -0.513620    -0.500282    -0.407640    -0.335297    -0.320590     0.109382     0.119274


 HOMO     28.1    -0.320590 =      -8.7237eV
 LUMO     29.1     0.109382 =       2.9764eV
 LUMO-HOMO         0.429972 =      11.7001eV

 Orbitals saved in record  2100.2


 **********************************************************************************************************************************
 DATASETS  * FILE   NREC   LENGTH (MB)   RECORD NAMES
              1      19     2632.37       500      610      700      900      950      970     1000      129      960     1100   
                                          VAR    BASINP    GEOM    SYMINP    ZMAT    AOBASIS   BASIS     P2S    ABASIS      S 
                                         1400     1410     1200     1210     1080     1600     1650     1300     1700   
                                           T        V       H0       H01     AOSYM     SMH    MOLCAS    ERIS     OPER   

              2       4        1.98       700     1000      520     2100   
                                         GEOM     BASIS   MCVARS     RHF  

 PROGRAMS   *        TOTAL    HF-SCF       INT
 CPU TIMES  *        87.62     53.84     33.69
 REAL TIME  *       106.36 SEC
 DISK USED  *        11.47 GB
 **********************************************************************************************************************************


 PROGRAM * MP4 (Closed-shell)     Authors: C. Hampel, H.-J. Werner, 1991, M. Deegan, P.J. Knowles, 1992


 CORETYPE=SMALL

 Convergence thresholds:  THRVAR = 1.00D-08  THRDEN = 1.00D-06

 MP4(T)     terms to be evaluated (factor= 0.000)


 Number of core orbitals:           1 (   1 )
 Number of closed-shell orbitals:  27 (  27 )
 Number of external orbitals:     268 ( 268 )

 Molecular orbitals read from record     2100.2  Type=RHF/CANONICAL  

 Checking core orbitals using projection, core_type=SMALL
 Threshold for active space selection:  0.30


  Number of target functions:              1

 Number of N-1 electron functions:              27
 Number of N-2 electron functions:             378
 Number of singly external CSFs:              7236
 Number of doubly external CSFs:          26183466
 Total number of CSFs:                    26190703

 Length of J-op  integral file:               0.00 MB
 Length of K-op  integral file:               6.08 MB

 Memory could be reduced to 629.33 Mwords without degradation in triples

 Integral transformation finished. Total CPU:  61.60 sec, npass=  1  Memory used: 419.01 MW

 Reference energy:                   -624.77494630

                        CORR.ENERGY   TOTAL ENERGY   ENERGY CHANGE
 MP2:                   -1.21265456  -625.98760086    -1.21265456

 SCS-MP2 correlation energy:           -1.20388336   (PS=  1.200000  PT=  0.333333)
 SCS-MP2 total energy:               -625.97882966

 MP3(D):                -1.25578279  -626.03072909    -0.04312823
 MP4(DQ):               -1.25020942  -626.02515572     0.00557336
 MP4(SDQ):              -1.26093473  -626.03588103    -0.01072530

 Norm of t1 vector:      0.09421319      S-energy:    -0.01072530      T1 diagnostic:  0.00906567

   CPU time for triples:   1822.82 sec for i =  1 - 20 / 27 (~  41.9 % done)
   CPU time for triples:   2048.05 sec for i = 21 - 25 / 27 (~  80.0 % done)
   CPU time for triples:   1167.16 sec for i = 26 - 27 / 27 (  100.0 % done)

 Total CPU time for triples:   5038.03 sec


 RESULTS
 =======

  Reference energy                   -624.774946301303

  Correlated core orbitals:             2.1       3.1       4.1       5.1       6.1       7.1       8.1       9.1      10.1
  Orbital energies:                   -15.6037  -15.5684  -11.3700  -11.2711  -11.2272   -8.8961   -6.5774   -6.5759   -6.5749

  MP4(SDQ) core-core energy            -0.070538172476
  MP4(SDQ) core-valence energy         -0.045214349893
  MP4(SDQ) valence correlation ener    -1.145182203868

  MP4(SDQ) singlet pair energy         -0.844300128816
  MP4(SDQ) triplet pair energy         -0.405909292650
  MP4(SDQ) correlation energy          -1.260934726236

  Triples contribution                 -0.056861074862
  Total correlation energy             -1.317795801098

  MP4(SDQ) total energy              -626.035881027540
 !MP4(SDTQ) total energy             -626.092742102402

 Timing summary (sec):

 STEP                 CPU(USER)    SYS     CPU(TOT)    WALL
 Transformation         63.88     11.07     74.95     80.89
 CCSD iterations       310.65      5.59    316.24    223.52
 Triples              5038.03    125.79   5163.82   5450.22

 Program statistics:

 Available memory in ccsd:              3145725056
 Min. memory needed in ccsd:              60698883
 Max. memory used in ccsd:                85489959
 Max. memory used in cckext:              67513179 ( 1 integral passes)



 **********************************************************************************************************************************
 DATASETS  * FILE   NREC   LENGTH (MB)   RECORD NAMES
              1      20     5003.13       500      610      700      900      950      970     1000      129      960     1100   
                                          VAR    BASINP    GEOM    SYMINP    ZMAT    AOBASIS   BASIS     P2S    ABASIS      S 
                                         1400     1410     1200     1210     1080     1600     1650     1300     1700     1380   
                                           T        V       H0       H01     AOSYM     SMH    MOLCAS    ERIS     OPER     JKOP   

              2       4        1.98       700     1000      520     2100   
                                         GEOM     BASIS   MCVARS     RHF  

 PROGRAMS   *        TOTAL       MP4    HF-SCF       INT
 CPU TIMES  *      5412.47   5324.85     53.84     33.69
 REAL TIME  *      5861.06 SEC
 DISK USED  *        11.47 GB
 **********************************************************************************************************************************

 Dump information in style XML to xml output                                                                      

 Orbitals will not be exported.

 **********************************************************************************************************************************

 MP4/cc-pVTZ energy=   -626.092742102402

             MP4          HF-SCF
   -626.09274210   -624.77494630
 **********************************************************************************************************************************
 Molpro calculation terminated
