
 Working directory              : /var/folders/2v/xbgp75_9785319ghcgb4zr4r0000gr/T//molpro.OeMKpifd4S/
 Global scratch directory       : /var/folders/2v/xbgp75_9785319ghcgb4zr4r0000gr/T//molpro.OeMKpifd4S/
 Wavefunction directory         : /Users/peterk/wfu/
 Main file repository           : /var/folders/2v/xbgp75_9785319ghcgb4zr4r0000gr/T//molpro.OeMKpifd4S/

 id        : peterk

 Nodes        nprocs
 pjk2022.local    1
 GA implementation: MPI file
 GA implementation (serial work in mppx): MPI file

 Using customized tuning parameters: mindgm=1; mindgv=20; mindgc=4; mindgr=1; noblas=0; minvec=7
 default implementation of scratch files=df  


 Variables initialized (1037), CPU time= 0.01 sec
 
 
 
 geometry={
 14
    S   -1.07651408694701      1.55909331300747     -0.16473423862825
    N   1.55759138460655      1.52879102637246     -0.00166525805909
    N   0.55024178271671     -0.51665327683518      0.07584104782563
    C   0.39480761738850      0.81542711689426     -0.01226111393943
    H   2.35939050602205      1.14610345291709      0.46702007763183
    H   1.43099378110250      2.51919923470171      0.08325351883907
    H   1.47820874248856     -0.89064132072958     -0.01023745870744
    C   -0.54350315415845     -1.45978337134053     -0.02538256632559
    C   -0.00842595671007     -2.87304066848227      0.00782815790672
    H   -1.23656353070287     -1.28244276737015      0.79375996936071
    H   -1.09794538233749     -1.27089204719750     -0.94300408538889
    H   0.49864844559912     -3.08551516241133      0.94698661332708
    H   -0.82163456804155     -3.58324981676604     -0.10446311715269
    H   0.69447441897345     -3.04922571276042     -0.80394154668966
 }
 basis=cc-pVTZ
 core,small
 
 
 hf; ccsd
 
 
 
 {put,xml;noorbitals,nobasis}
 Commands initialized (841), CPU time= 0.00 sec, 716 directives.
 Default parameters read. Elapsed time= 0.06 sec

 Checking input...
 Passed
1


                                         ***  PROGRAM SYSTEM MOLPRO  ***
                                       Copyright, TTI GmbH Stuttgart, 2015
                                    Version 2023.1 linked Sat Jul 22 07:59:25 2023


 **********************************************************************************************************************************
 LABEL *                                                                                                                                                                 
  64 bit serial version                                                                  DATE: 02-Aug-23          TIME: 09:39:00  
 **********************************************************************************************************************************

 SHA1:             401d111a1dbfa49388eacdf0424f85138b2d30d0
 **********************************************************************************************************************************

 Memory per process:      3146 MW
 Total memory per node:   4194 MW
 Total GA space:          1049 MW

 GA preallocation disabled
 GA check enabled

 Geometry recognized as XYZ


 Variable memory set to 3145.7 MW

 SETTING BASIS          =    CC-PVTZ


 Recomputing integrals since basis changed


 Using spherical harmonics

 Library entry S      S cc-pVTZ              selected for orbital group  1
 Library entry S      P cc-pVTZ              selected for orbital group  1
 Library entry S      D cc-pVTZ              selected for orbital group  1
 Library entry S      F cc-pVTZ              selected for orbital group  1
 Library entry N      S cc-pVTZ              selected for orbital group  2
 Library entry N      P cc-pVTZ              selected for orbital group  2
 Library entry N      D cc-pVTZ              selected for orbital group  2
 Library entry N      F cc-pVTZ              selected for orbital group  2
 Library entry C      S cc-pVTZ              selected for orbital group  3
 Library entry C      P cc-pVTZ              selected for orbital group  3
 Library entry C      D cc-pVTZ              selected for orbital group  3
 Library entry C      F cc-pVTZ              selected for orbital group  3
 Library entry H      S cc-pVTZ              selected for orbital group  4
 Library entry H      P cc-pVTZ              selected for orbital group  4
 Library entry H      D cc-pVTZ              selected for orbital group  4


 PROGRAM * SEWARD (Integral evaluation for generally contracted gaussian basis sets)     Author: Roland Lindh, 1990

 Geometry written to block  1 of record 700


 Point group  C1  



 ATOMIC COORDINATES

 NR  ATOM    CHARGE       X              Y              Z

   1  S      16.00   -2.034316794    2.946259364   -0.311302594
   2  N       7.00    2.943421131    2.888996342   -0.003146882
   3  N       7.00    1.039806272   -0.976333195    0.143318809
   4  C       6.00    0.746078269    1.540933926   -0.023170147
   5  H       1.00    4.458601877    2.165821637    0.882540041
   6  H       1.00    2.704186332    4.760596607    0.157326350
   7  H       1.00    2.793409678   -1.683068171   -0.019345993
   8  C       6.00   -1.027072109   -2.758590773   -0.047966099
   9  C       6.00   -0.015922751   -5.429260008    0.014793075
  10  H       1.00   -2.336766409   -2.423465601    1.499988951
  11  H       1.00   -2.074816072   -2.401637903   -1.782019456
  12  H       1.00    0.942308995   -5.830778610    1.789545343
  13  H       1.00   -1.552664308   -6.771360790   -0.197406682
  14  H       1.00    1.312366452   -5.762201489   -1.519229343

 Bond lengths in Bohr (Angstrom)

 1-4  3.128666904  2-4  2.577981548  2-5  1.898208543  2-6  1.893640013  3-4  2.539808746
     ( 1.655619226)     ( 1.364209085)     ( 1.004488703)     ( 1.002071141)     ( 1.344008908)

  3- 7  1.897645666   3- 8  2.735876136   8- 9  2.856367606   8-10  2.055181957   8-11  2.057212631
       ( 1.004190841)       ( 1.447763303)       ( 1.511524643)       ( 1.087555456)       ( 1.088630042)

  9-12  2.056494804   9-13  2.051301504   9-14  2.056313939
       ( 1.088250185)       ( 1.085502008)       ( 1.088154475)

 Bond angles

  1-4-2  121.55413615   1-4-3  123.64209745   2-4-3  114.78344315   3-8-9  109.88393565

  3- 8-10  108.81709668   3- 8-11  109.30915153   4- 2- 5  118.99709286   4- 2- 6  114.19249504

  4-3-7  118.05857485   4-3-8  123.62152277   5-2-6  115.96654728   7-3-8  116.71292067

  8- 9-12  111.49742149   8- 9-13  110.13664928   8- 9-14  111.32526745   9- 8-10  111.19258833

  9- 8-11  111.16438557  10- 8-11  106.38112730  12- 9-13  108.09560510  12- 9-14  108.13179761

 13- 9-14  107.50660725

 NUCLEAR CHARGE:                   56
 NUMBER OF PRIMITIVE AOS:         435
 NUMBER OF SYMMETRY AOS:          397
 NUMBER OF CONTRACTIONS:          296   (  296A   )
 NUMBER OF INNER CORE ORBITALS:     1   (    1A   )
 NUMBER OF OUTER CORE ORBITALS:     9   (    9A   )
 NUMBER OF VALENCE ORBITALS:       32   (   32A   )


 NUCLEAR REPULSION ENERGY  295.57606316


 Eigenvalues of metric

         1 0.644E-03 0.786E-03 0.883E-03 0.996E-03 0.106E-02 0.129E-02 0.134E-02 0.148E-02


 Contracted 2-electron integrals neglected if value below      1.0D-11
 AO integral compression algorithm  1   Integral accuracy      1.0D-11

     2827.747 MB (compressed) written to integral file ( 36.4%)


 NUMBER OF SORTED TWO-ELECTRON INTEGRALS:  966086946.     BUFFER LENGTH:  32768
 NUMBER OF SEGMENTS:  61  SEGMENT LENGTH:   15999984      RECORD LENGTH: 262144

 Memory used in sort:      16.29 MW

 SORT1 READ   970478732. AND WROTE   742194611. INTEGRALS IN   4281 RECORDS. CPU TIME:     7.71 SEC, REAL TIME:    10.52 SEC
 SORT2 READ   742194611. AND WROTE   966086946. INTEGRALS IN  10787 RECORDS. CPU TIME:     5.56 SEC, REAL TIME:     9.96 SEC

 FILE SIZES:   FILE 1:  2861.2 MBYTE,  FILE 4:  8978.0 MBYTE,   TOTAL:  11839.2 MBYTE

 OPERATOR DM      FOR CENTER  0  COORDINATES:    0.000000    0.000000    0.000000


 **********************************************************************************************************************************
 DATASETS  * FILE   NREC   LENGTH (MB)   RECORD NAMES
              1      19     2501.73       500      610      700      900      950      970     1000      129      960     1100   
                                          VAR    BASINP    GEOM    SYMINP    ZMAT    AOBASIS   BASIS     P2S    ABASIS      S 
                                         1400     1410     1200     1210     1080     1600     1650     1300     1700   
                                           T        V       H0       H01     AOSYM     SMH    MOLCAS    ERIS     OPER   

 PROGRAMS   *        TOTAL       INT
 CPU TIMES  *        33.84     33.75
 REAL TIME  *        43.66 SEC
 DISK USED  *        11.03 GB
 **********************************************************************************************************************************


 Program * Restricted Hartree-Fock

 Orbital guess generated from atomic densities. Full valence occupancy:   42

 Initial occupancy:  28

 NELEC=   56   SYM=1   MS2= 0   THRE=1.0D-08   THRD=3.2D-06   THRG=3.2D-06  HFMA2=F  DIIS_START=2   DIIS_MAX=10   DIIS_INCORE=F

 Level shifts:    0.00 (CLOSED)    0.00 (OPEN)    0.30 (GAP_MIN)

 ITER           ETOT              DE          GRAD        DDIFF     DIIS  NEXP   TIME(IT)  TIME(TOT)  DIAG
   1     -624.70398655    -624.70398655     0.00D+00     0.48D-01     0     0       4.05      7.92    start
   2     -624.78512899      -0.08114245     0.31D-02     0.54D-02     1     0       4.24     12.16    diag
   3     -624.80227126      -0.01714227     0.15D-02     0.17D-02     2     0       4.41     16.57    diag
   4     -624.80499706      -0.00272580     0.52D-03     0.60D-03     3     0       4.28     20.85    diag
   5     -624.80524966      -0.00025260     0.13D-03     0.19D-03     4     0       4.19     25.04    diag
   6     -624.80528581      -0.00003615     0.41D-04     0.90D-04     5     0       4.14     29.18    diag
   7     -624.80528909      -0.00000329     0.11D-04     0.28D-04     6     0       4.11     33.29    diag
   8     -624.80528937      -0.00000027     0.38D-05     0.68D-05     7     0       4.43     37.72    fixocc
   9     -624.80528942      -0.00000005     0.15D-05     0.31D-05     8     0       4.53     42.25    diag
  10     -624.80528943      -0.00000001     0.54D-06     0.14D-05     9     0       4.67     46.92    diag/orth
  11     -624.80528943      -0.00000000     0.22D-06     0.36D-06     0     0       4.44     51.36    diag

 Final occupancy:  28

 !RHF STATE 1.1 Energy               -624.805289428600
  RHF One-electron energy           -1444.503858739794
  RHF Two-electron energy             524.122506155276
  RHF Kinetic energy                  624.655864053548
  RHF Nuclear energy                  295.576063155918
  RHF Virial quotient                  -1.000239212315

 !RHF STATE 1.1 Dipole moment           1.71908730    -1.18900225     0.38093740
 Dipole moment /Debye                   4.36948408    -3.02214227     0.96824629

 Orbital energies:

           1.1          2.1          3.1          4.1          5.1          6.1          7.1          8.1          9.1         10.1
    -91.876437   -15.597489   -15.589492   -11.366117   -11.265200   -11.231435    -8.881837    -6.563456    -6.561482    -6.560866

          11.1         12.1         13.1         14.1         15.1         16.1         17.1         18.1         19.1         20.1
     -1.312375    -1.207766    -1.037828    -0.970141    -0.877819    -0.790289    -0.737842    -0.703260    -0.655854    -0.630648

          21.1         22.1         23.1         24.1         25.1         26.1         27.1         28.1         29.1         30.1
     -0.569757    -0.547180    -0.535061    -0.514058    -0.498141    -0.409818    -0.321775    -0.316019     0.119459     0.139152


 HOMO     28.1    -0.316019 =      -8.5993eV
 LUMO     29.1     0.119459 =       3.2506eV
 LUMO-HOMO         0.435478 =      11.8500eV

 Orbitals saved in record  2100.2


 **********************************************************************************************************************************
 DATASETS  * FILE   NREC   LENGTH (MB)   RECORD NAMES
              1      19     2501.73       500      610      700      900      950      970     1000      129      960     1100   
                                          VAR    BASINP    GEOM    SYMINP    ZMAT    AOBASIS   BASIS     P2S    ABASIS      S 
                                         1400     1410     1200     1210     1080     1600     1650     1300     1700   
                                           T        V       H0       H01     AOSYM     SMH    MOLCAS    ERIS     OPER   

              2       4        1.98       700     1000      520     2100   
                                         GEOM     BASIS   MCVARS     RHF  

 PROGRAMS   *        TOTAL    HF-SCF       INT
 CPU TIMES  *        85.21     51.37     33.75
 REAL TIME  *       100.25 SEC
 DISK USED  *        11.03 GB
 **********************************************************************************************************************************


 PROGRAM * CCSD (Closed-shell coupled cluster)     Authors: C. Hampel, H.-J. Werner, 1991, M. Deegan, P.J. Knowles, 1992


 CORETYPE=SMALL

 Convergence thresholds:  THRVAR = 1.00D-08  THRDEN = 1.00D-06

 Number of core orbitals:           1 (   1 )
 Number of closed-shell orbitals:  27 (  27 )
 Number of external orbitals:     268 ( 268 )

 Molecular orbitals read from record     2100.2  Type=RHF/CANONICAL  

 Checking core orbitals using projection, core_type=SMALL
 Threshold for active space selection:  0.30


  Number of target functions:              1

 Number of N-1 electron functions:              27
 Number of N-2 electron functions:             378
 Number of singly external CSFs:              7236
 Number of doubly external CSFs:          26183466
 Total number of CSFs:                    26190703

 Length of J-op  integral file:               0.00 MB
 Length of K-op  integral file:               6.08 MB
 Length of 3-ext integral record:             0.00 MB

 Integral transformation finished. Total CPU:  50.14 sec, npass=  1  Memory used: 419.01 MW

 Reference energy:                   -624.80528943

 MP2 singlet pair energy:              -0.77551996
 MP2 triplet pair energy:              -0.43543264
 MP2 correlation energy:               -1.21095260
 MP2 total energy:                   -626.01624203

 SCS-MP2 correlation energy:           -1.20155982   (PS=  1.200000  PT=  0.333333)
 SCS-MP2 total energy:               -626.00684924

 ITER.      SQ.NORM     CORR.ENERGY   TOTAL ENERGY   ENERGY CHANGE        DEN1      VAR(S)    VAR(P)  DIIS     TIME  TIME/IT
   1      1.36592341    -1.25362494  -626.05891437    -0.04267234    -0.01280241  0.61D-02  0.60D-02  1  1   313.54   168.85
   2      1.39010926    -1.25653269  -626.06182212    -0.00290775    -0.02649643  0.15D-03  0.79D-03  2  2   481.05   166.73
   3      1.39904355    -1.25675163  -626.06204106    -0.00021894    -0.00452150  0.15D-03  0.42D-04  3  3   657.54   169.66
   4      1.40283640    -1.25667987  -626.06196930     0.00007176    -0.00148225  0.21D-04  0.72D-05  4  4   852.87   175.70
   5      1.40449533    -1.25668970  -626.06197913    -0.00000982    -0.00033100  0.54D-05  0.83D-06  5  5  1050.81   179.55
   6      1.40508807    -1.25666292  -626.06195235     0.00002678    -0.00004654  0.66D-06  0.20D-06  6  6  1245.28   181.21
   7      1.40528522    -1.25665351  -626.06194294     0.00000941    -0.00001776  0.20D-06  0.32D-07  6  2  1435.71   182.59
   8      1.40533636    -1.25665140  -626.06194083     0.00000211    -0.00000389  0.38D-07  0.96D-08  6  1  1618.42   182.19
   9      1.40535429    -1.25665134  -626.06194077     0.00000006     0.00000306  0.74D-08  0.18D-08  6  4  1825.14   185.56
  10      1.40535961    -1.25665194  -626.06194137    -0.00000060    -0.00000137  0.74D-09  0.26D-09  6  3  2039.46   188.86

 Norm of t1 vector:      0.11711017      S-energy:     0.00000082      T1 diagnostic:  0.01126893
                                                                       D1 diagnostic:  0.06488216
                                                                       D2 diagnostic:  0.16723203 (internal)


 RESULTS
 =======

  Reference energy                   -624.805289428600

  Correlated core orbitals:             2.1       3.1       4.1       5.1       6.1       7.1       8.1       9.1      10.1
  Orbital energies:                   -15.5975  -15.5895  -11.3661  -11.2652  -11.2314   -8.8818   -6.5635   -6.5615   -6.5609

  CCSD core-core energy                -0.070959104364
  CCSD core-valence energy             -0.045534809822
  CCSD valence correlation energy      -1.140158028561

  CCSD singlet pair energy             -0.856763194585
  CCSD triplet pair energy             -0.399889572189
  CCSD correlation energy              -1.256651942747

 !CCSD total energy                  -626.061941371348

 Timing summary (sec):

 STEP                 CPU(USER)    SYS     CPU(TOT)    WALL
 Transformation         52.20      7.87     60.07     58.24
 CCSD iterations      1988.79     75.82   2064.61   1890.47

 Program statistics:

 Available memory in ccsd:              3145725056
 Min. memory needed in ccsd:              60698883
 Max. memory used in ccsd:                85489959
 Max. memory used in cckext:              67521171 (10 integral passes)



 **********************************************************************************************************************************
 DATASETS  * FILE   NREC   LENGTH (MB)   RECORD NAMES
              1      20     4872.48       500      610      700      900      950      970     1000      129      960     1100   
                                          VAR    BASINP    GEOM    SYMINP    ZMAT    AOBASIS   BASIS     P2S    ABASIS      S 
                                         1400     1410     1200     1210     1080     1600     1650     1300     1700     1380   
                                           T        V       H0       H01     AOSYM     SMH    MOLCAS    ERIS     OPER     JKOP   

              2       4        1.98       700     1000      520     2100   
                                         GEOM     BASIS   MCVARS     RHF  

 PROGRAMS   *        TOTAL      CCSD    HF-SCF       INT
 CPU TIMES  *      2040.90   1955.69     51.37     33.75
 REAL TIME  *      2049.40 SEC
 DISK USED  *        11.03 GB
 **********************************************************************************************************************************

 Dump information in style XML to xml output                                                                      

 Orbitals will not be exported.

 **********************************************************************************************************************************

 CCSD/cc-pVTZ energy=   -626.061941371348

            CCSD          HF-SCF
   -626.06194137   -624.80528943
 **********************************************************************************************************************************
 Molpro calculation terminated
