
 Working directory              : /var/folders/2v/xbgp75_9785319ghcgb4zr4r0000gr/T//molpro.hE8LaQRUuh/
 Global scratch directory       : /var/folders/2v/xbgp75_9785319ghcgb4zr4r0000gr/T//molpro.hE8LaQRUuh/
 Wavefunction directory         : /Users/peterk/wfu/
 Main file repository           : /var/folders/2v/xbgp75_9785319ghcgb4zr4r0000gr/T//molpro.hE8LaQRUuh/

 id        : peterk

 Nodes        nprocs
 pjk2022.local    1
 GA implementation: MPI file
 GA implementation (serial work in mppx): MPI file

 Using customized tuning parameters: mindgm=1; mindgv=20; mindgc=4; mindgr=1; noblas=0; minvec=7
 default implementation of scratch files=df  


 Variables initialized (1037), CPU time= 0.00 sec
 
 
 
 geometry={
 4
  O     0.0402907   -0.7150390   -0.2337508
  O    -0.0402907    0.7150390   -0.2337508
  H    -0.7702468   -0.9380581    0.2337569
  H     0.7702468    0.9380581    0.2337569
 }
 basis=cc-pVDZ
 core,small
 
 
 hf; papt;mp3
 
 
 
 {put,xml;noorbitals,nobasis}
 Commands initialized (841), CPU time= 0.00 sec, 716 directives.
 Default parameters read. Elapsed time= 0.05 sec

 Checking input...
 Passed
1


                                         ***  PROGRAM SYSTEM MOLPRO  ***
                                       Copyright, TTI GmbH Stuttgart, 2015
                                    Version 2023.1 linked Sat Jul 22 07:59:25 2023


 **********************************************************************************************************************************
 LABEL *                                                                                                                                                                 
  64 bit serial version                                                                  DATE: 01-Aug-23          TIME: 22:16:37  
 **********************************************************************************************************************************

 SHA1:             401d111a1dbfa49388eacdf0424f85138b2d30d0
 **********************************************************************************************************************************

 Memory per process:      3146 MW
 Total memory per node:   4194 MW
 Total GA space:          1049 MW

 GA preallocation disabled
 GA check enabled

 Geometry recognized as XYZ


 Variable memory set to 3145.7 MW

 SETTING BASIS          =    CC-PVDZ


 Recomputing integrals since basis changed


 Using spherical harmonics

 Library entry O      S cc-pVDZ              selected for orbital group  1
 Library entry O      P cc-pVDZ              selected for orbital group  1
 Library entry O      D cc-pVDZ              selected for orbital group  1
 Library entry H      S cc-pVDZ              selected for orbital group  2
 Library entry H      P cc-pVDZ              selected for orbital group  2


 PROGRAM * SEWARD (Integral evaluation for generally contracted gaussian basis sets)     Author: Roland Lindh, 1990

 Geometry written to block  1 of record 700


 Point group  C2  



 ATOMIC COORDINATES

 NR  ATOM    CHARGE       X              Y              Z

   1  O       8.00    0.076138388   -1.351227878   -0.441724993
   2  O       8.00   -0.076138388    1.351227878   -0.441724993
   3  H       1.00   -1.455555500   -1.772672898    0.441736521
   4  H       1.00    1.455555500    1.772672898    0.441736521

 Bond lengths in Bohr (Angstrom)

 1-2  2.706742569  1-3  1.817747595  2-4  1.817747595
     ( 1.432346483)     ( 0.961910603)     ( 0.961910603)

 Bond angles

  1-2-4  100.60737277   2-1-3  100.60737277

 NUCLEAR CHARGE:                   18
 NUMBER OF PRIMITIVE AOS:          68
 NUMBER OF SYMMETRY AOS:           66
 NUMBER OF CONTRACTIONS:           38   (   19A   +   19B   )
 NUMBER OF INNER CORE ORBITALS:     0   (    0A   +    0B   )
 NUMBER OF OUTER CORE ORBITALS:     2   (    1A   +    1B   )
 NUMBER OF VALENCE ORBITALS:       10   (    5A   +    5B   )


 NUCLEAR REPULSION ENERGY   37.20075843

 Eigenvalues of metric

         1 0.240E-01 0.467E-01 0.138E+00 0.156E+00 0.197E+00 0.222E+00 0.553E+00 0.573E+00
         2 0.120E-01 0.472E-01 0.888E-01 0.149E+00 0.170E+00 0.188E+00 0.425E+00 0.563E+00


 Contracted 2-electron integrals neglected if value below      1.0D-11
 AO integral compression algorithm  1   Integral accuracy      1.0D-11

     1.049 MB (compressed) written to integral file ( 59.0%)


 NUMBER OF SORTED TWO-ELECTRON INTEGRALS:     144590.     BUFFER LENGTH:  32768
 NUMBER OF SEGMENTS:   1  SEGMENT LENGTH:     144590      RECORD LENGTH: 524288

 Memory used in sort:       0.70 MW

 SORT1 READ      245816. AND WROTE      123438. INTEGRALS IN      1 RECORDS. CPU TIME:     0.00 SEC, REAL TIME:     0.00 SEC
 SORT2 READ      123438. AND WROTE      144590. INTEGRALS IN      4 RECORDS. CPU TIME:     0.01 SEC, REAL TIME:     0.01 SEC

 FILE SIZES:   FILE 1:    31.1 MBYTE,  FILE 4:     4.3 MBYTE,   TOTAL:     35.4 MBYTE

 OPERATOR DM      FOR CENTER  0  COORDINATES:    0.000000    0.000000    0.000000


 **********************************************************************************************************************************
 DATASETS  * FILE   NREC   LENGTH (MB)   RECORD NAMES
              1      19       29.27       500      610      700      900      950      970     1000      129      960     1100   
                                          VAR    BASINP    GEOM    SYMINP    ZMAT    AOBASIS   BASIS     P2S    ABASIS      S 
                                         1400     1410     1200     1210     1080     1600     1650     1300     1700   
                                           T        V       H0       H01     AOSYM     SMH    MOLCAS    ERIS     OPER   

 PROGRAMS   *        TOTAL       INT
 CPU TIMES  *         0.28      0.19
 REAL TIME  *         0.76 SEC
 DISK USED  *        34.11 MB
 **********************************************************************************************************************************


 Program * Restricted Hartree-Fock

 Orbital guess generated from atomic densities. Full valence occupancy:    6   6

 Initial occupancy:   5   4

 NELEC=   18   SYM=1   MS2= 0   THRE=1.0D-08   THRD=3.2D-06   THRG=3.2D-06  HFMA2=F  DIIS_START=2   DIIS_MAX=10   DIIS_INCORE=F

 Level shifts:    0.00 (CLOSED)    0.00 (OPEN)    0.30 (GAP_MIN)

 ITER           ETOT              DE          GRAD        DDIFF     DIIS  NEXP   TIME(IT)  TIME(TOT)  DIAG
   1     -150.75915476    -150.75915476     0.00D+00     0.29D+00     0     0       0.00      0.01    start
   2     -150.78431565      -0.02516089     0.15D-01     0.30D-01     1     0       0.00      0.01    diag
   3     -150.78525102      -0.00093537     0.29D-02     0.47D-02     2     0       0.00      0.01    diag
   4     -150.78535662      -0.00010560     0.79D-03     0.18D-02     3     0       0.00      0.01    diag
   5     -150.78536800      -0.00001138     0.29D-03     0.48D-03     4     0       0.00      0.01    diag
   6     -150.78536881      -0.00000081     0.54D-04     0.11D-03     5     0       0.00      0.01    diag
   7     -150.78536884      -0.00000003     0.99D-05     0.23D-04     6     0       0.00      0.01    diag
   8     -150.78536885      -0.00000000     0.26D-05     0.68D-05     7     0       0.00      0.01    fixocc
   9     -150.78536885      -0.00000000     0.64D-06     0.17D-05     8     0       0.00      0.01    diag
  10     -150.78536885      -0.00000000     0.15D-06     0.30D-06     0     0       0.00      0.01    diag/orth

 Final occupancy:   5   4

 !RHF STATE 1.1 Energy               -150.785368846925
  RHF One-electron energy            -282.123403951003
  RHF Two-electron energy              94.137276671770
  RHF Kinetic energy                  150.704496363104
  RHF Nuclear energy                   37.200758432308
  RHF Virial quotient                  -1.000536629535

 !RHF STATE 1.1 Dipole moment           0.00000000     0.00000000     0.69724962
 Dipole moment /Debye                   0.00000000     0.00000000     1.77223176

 Orbital energies:

           1.1          2.1          3.1          4.1          5.1          6.1          7.1
    -20.621392    -1.477229    -0.704135    -0.605665    -0.512473     0.189757     0.827400

           1.2          2.2          3.2          4.2          5.2          6.2
    -20.621088    -1.205551    -0.708218    -0.468675     0.195121     0.317224


 HOMO      4.2    -0.468675 =     -12.7533eV
 LUMO      6.1     0.189757 =       5.1635eV
 LUMO-HOMO         0.658432 =      17.9169eV

 Orbitals saved in record  2100.2


 **********************************************************************************************************************************
 DATASETS  * FILE   NREC   LENGTH (MB)   RECORD NAMES
              1      19       29.27       500      610      700      900      950      970     1000      129      960     1100   
                                          VAR    BASINP    GEOM    SYMINP    ZMAT    AOBASIS   BASIS     P2S    ABASIS      S 
                                         1400     1410     1200     1210     1080     1600     1650     1300     1700   
                                           T        V       H0       H01     AOSYM     SMH    MOLCAS    ERIS     OPER   

              2       4        0.44       700     1000      520     2100   
                                         GEOM     BASIS   MCVARS     RHF  

 PROGRAMS   *        TOTAL    HF-SCF       INT
 CPU TIMES  *         0.29      0.01      0.19
 REAL TIME  *         0.77 SEC
 DISK USED  *        34.11 MB
 **********************************************************************************************************************************


 PROGRAM * PAPT (Closed-shell)     Authors: C. Hampel, H.-J. Werner, 1991, P.J. Knowles, 2021


 CORETYPE=SMALL

 Convergence thresholds:  THRVAR = 1.00D-08  THRDEN = 1.00D-06

 Number of closed-shell orbitals:   9 (   5   4 )
 Number of external orbitals:      29 (  14  15 )

 Molecular orbitals read from record     2100.2  Type=RHF/CANONICAL  

 Number of N-1 electron functions:               9
 Number of N-2 electron functions:              45
 Number of singly external CSFs:               130
 Number of doubly external CSFs:             17161
 Total number of CSFs:                       17292

 Length of J-op  integral file:               0.00 MB
 Length of K-op  integral file:               0.11 MB

 Integral transformation finished. Total CPU:   0.00 sec, npass=  1  Memory used:   0.11 MW

 Reference energy:                   -150.78536885

                        CORR.ENERGY   TOTAL ENERGY   ENERGY CHANGE
 MP2:                   -0.38907474  -151.17444359    -0.38907474

 SCS-MP2 correlation energy:           -0.38046568   (PS=  1.200000  PT=  0.333333)
 SCS-MP2 total energy:               -151.16583453
 Iteration:   1     0.2423D+00
 Iteration:   2     0.8065D+00
 Iteration:   3     0.7819D-01
 Iteration:   4     0.2873D+00
 Iteration:   5     0.2984D-01
 Iteration:   6     0.8717D-01
 Iteration:   7     0.1231D-01
 Iteration:   8     0.1412D-01
 Iteration:   9     0.7808D-02
 Iteration:  10     0.1783D-02
 Iteration:  11     0.6153D-02
 Iteration:  12     0.4481D-03
 Iteration:  13     0.5443D-03
 Iteration:  14     0.2526D-03
 Iteration:  15     0.1424D-03
 Iteration:  16     0.1796D-03
 Iteration:  17     0.5244D-04
 PAPT operator written to  7000.1
 PAPT orbitals and eigenvalues written to  7000.2

 MP3(D):                -0.39696509  -151.18233394    -0.00789035



 RESULTS
 =======

  Reference energy                   -150.785368846926

  Correlated core orbitals:             1.1       1.2
  Orbital energies:                   -20.6214  -20.6211

  MP3 core-core energy                 -0.000737038352
  MP3 core-valence energy              -0.003511815660
  MP3 valence correlation energy       -0.392716236141

  MP3 singlet pair energy              -0.261814139260
  MP3 triplet pair energy              -0.135150950893
  MP3 correlation energy               -0.396965090153

 !MP3 total energy                   -151.182333937078

 Timing summary (sec):

 STEP                 CPU(USER)    SYS     CPU(TOT)    WALL
 CCSD iterations         0.45      0.01      0.46      0.05

 Program statistics:

 Available memory in ccsd:              3145727671
 Min. memory needed in ccsd:                 60995
 Max. memory used in ccsd:                   73552
 Max. memory used in cckext:                109987 ( 1 integral passes)



 **********************************************************************************************************************************
 DATASETS  * FILE   NREC   LENGTH (MB)   RECORD NAMES
              1      21       29.66       500      610      700      900      950      970     1000      129      960     1100   
                                          VAR    BASINP    GEOM    SYMINP    ZMAT    AOBASIS   BASIS     P2S    ABASIS      S 
                                         1400     1410     1200     1210     1080     1600     1650     1300     1700     1380   
                                           T        V       H0       H01     AOSYM     SMH    MOLCAS    ERIS     OPER     JKOP   
                                         7000   
                                        PAPT AO    

              2       5        0.55       700     1000      520     2100     7000   
                                         GEOM     BASIS   MCVARS     RHF     PAPT   

 PROGRAMS   *        TOTAL      PAPT    HF-SCF       INT
 CPU TIMES  *         0.36      0.07      0.01      0.19
 REAL TIME  *         0.86 SEC
 DISK USED  *        34.11 MB
 **********************************************************************************************************************************


 PROGRAM * MP3 (Closed-shell)     Authors: C. Hampel, H.-J. Werner, 1991, M. Deegan, P.J. Knowles, 1992


 CORETYPE=SMALL

 Convergence thresholds:  THRVAR = 1.00D-08  THRDEN = 1.00D-06

 Number of closed-shell orbitals:   9 (   5   4 )
 Number of external orbitals:      29 (  14  15 )

 Molecular orbitals read from record     7000.2  Type=PAPT/CANONICAL (state 1.1)

 Number of N-1 electron functions:               9
 Number of N-2 electron functions:              45
 Number of singly external CSFs:               130
 Number of doubly external CSFs:             17161
 Total number of CSFs:                       17292

 Length of J-op  integral file:               0.00 MB
 Length of K-op  integral file:               0.11 MB

 Integral transformation finished. Total CPU:   0.00 sec, npass=  1  Memory used:   0.11 MW
 Orbital energies read from record       7000.2  Type=PAPT/CANONICAL (state 1.1)

 Reference energy:                   -150.78536885

                        CORR.ENERGY   TOTAL ENERGY   ENERGY CHANGE
 MP2:                   -0.39951980  -151.18488865    -0.39951980

 SCS-MP2 correlation energy:           -0.39237195   (PS=  1.200000  PT=  0.333333)
 SCS-MP2 total energy:               -151.17774080

 MP3(D):                -0.39972883  -151.18509768    -0.00020903



 RESULTS
 =======

  Reference energy                   -150.785368846926

  Correlated core orbitals:             1.1       1.2
  Orbital energies:                   -21.4495  -21.5072

  MP3 core-core energy                 -0.000729858785
  MP3 core-valence energy              -0.003430588607
  MP3 valence correlation energy       -0.395568385804

  MP3 singlet pair energy              -0.264391928907
  MP3 triplet pair energy              -0.135336904290
  MP3 correlation energy               -0.399728833197

 !MP3 total energy                   -151.185097680123

 Timing summary (sec):

 STEP                 CPU(USER)    SYS     CPU(TOT)    WALL
 CCSD iterations         0.49      0.00      0.49      0.03

 Program statistics:

 Available memory in ccsd:              3145727671
 Min. memory needed in ccsd:                 60995
 Max. memory used in ccsd:                   73552
 Max. memory used in cckext:                109987 ( 1 integral passes)



 **********************************************************************************************************************************
 DATASETS  * FILE   NREC   LENGTH (MB)   RECORD NAMES
              1      21       29.66       500      610      700      900      950      970     1000      129      960     1100   
                                          VAR    BASINP    GEOM    SYMINP    ZMAT    AOBASIS   BASIS     P2S    ABASIS      S 
                                         1400     1410     1200     1210     1080     1600     1650     1300     1700     1380   
                                           T        V       H0       H01     AOSYM     SMH    MOLCAS    ERIS     OPER     JKOP   
                                         7000   
                                        PAPT AO    

              2       5        0.55       700     1000      520     2100     7000   
                                         GEOM     BASIS   MCVARS     RHF     PAPT   

 PROGRAMS   *        TOTAL       MP3      PAPT    HF-SCF       INT
 CPU TIMES  *         0.41      0.04      0.07      0.01      0.19
 REAL TIME  *         0.91 SEC
 DISK USED  *        34.11 MB
 **********************************************************************************************************************************

 Dump information in style XML to xml output                                                                      

 Orbitals will not be exported.

 **********************************************************************************************************************************

 MP3/cc-pVDZ energy=   -151.185097680123

             MP3            PAPT          HF-SCF
   -151.18509768   -151.18233394   -150.78536885
 **********************************************************************************************************************************
 Molpro calculation terminated
