
 Working directory              : /var/folders/2v/xbgp75_9785319ghcgb4zr4r0000gr/T//molpro.QKs53uxHI2/
 Global scratch directory       : /var/folders/2v/xbgp75_9785319ghcgb4zr4r0000gr/T//molpro.QKs53uxHI2/
 Wavefunction directory         : /Users/peterk/wfu/
 Main file repository           : /var/folders/2v/xbgp75_9785319ghcgb4zr4r0000gr/T//molpro.QKs53uxHI2/

 id        : peterk

 Nodes        nprocs
 pjk2022.local    1
 GA implementation: MPI file
 GA implementation (serial work in mppx): MPI file

 Using customized tuning parameters: mindgm=1; mindgv=20; mindgc=4; mindgr=1; noblas=0; minvec=7
 default implementation of scratch files=df  


 Variables initialized (1037), CPU time= 0.00 sec
 
 
 
 geometry={
 8
  C     0.0000000   -0.0000000   -0.7565307
  C     0.0000000    0.0000000    0.7565307
  H     0.8767674    0.5062019   -1.1518715
  H    -0.0000000   -1.0124038   -1.1518715
  H    -0.8767674    0.5062019   -1.1518715
  H    -0.8767674   -0.5062019    1.1518715
  H     0.8767674   -0.5062019    1.1518715
  H    -0.0000000    1.0124038    1.1518715
 }
 basis=cc-pVDZ
 core,small
 
 
 hf; papt;mp3
 
 
 
 {put,xml;noorbitals,nobasis}
 Commands initialized (841), CPU time= 0.01 sec, 716 directives.
 Default parameters read. Elapsed time= 0.05 sec

 Checking input...
 Passed
1


                                         ***  PROGRAM SYSTEM MOLPRO  ***
                                       Copyright, TTI GmbH Stuttgart, 2015
                                    Version 2023.1 linked Sat Jul 22 07:59:25 2023


 **********************************************************************************************************************************
 LABEL *                                                                                                                                                                 
  64 bit serial version                                                                  DATE: 01-Aug-23          TIME: 22:16:49  
 **********************************************************************************************************************************

 SHA1:             401d111a1dbfa49388eacdf0424f85138b2d30d0
 **********************************************************************************************************************************

 Memory per process:      3146 MW
 Total memory per node:   4194 MW
 Total GA space:          1049 MW

 GA preallocation disabled
 GA check enabled

 Geometry recognized as XYZ


 Variable memory set to 3145.7 MW

 SETTING BASIS          =    CC-PVDZ


 Recomputing integrals since basis changed


 Using spherical harmonics

 Library entry C      S cc-pVDZ              selected for orbital group  1
 Library entry C      P cc-pVDZ              selected for orbital group  1
 Library entry C      D cc-pVDZ              selected for orbital group  1
 Library entry H      S cc-pVDZ              selected for orbital group  2
 Library entry H      P cc-pVDZ              selected for orbital group  2


 PROGRAM * SEWARD (Integral evaluation for generally contracted gaussian basis sets)     Author: Roland Lindh, 1990

 Geometry written to block  1 of record 700


 Point group  C2h 



 ATOMIC COORDINATES

 NR  ATOM    CHARGE       X              Y              Z

   1  C       6.00    0.000000000    0.000000000   -1.429635828
   2  C       6.00    0.000000000    0.000000000    1.429635828
   3  H       1.00    1.656850261    0.956582955   -2.176721666
   4  H       1.00   -1.656850261    0.956582955   -2.176721666
   5  H       1.00   -1.656850261   -0.956582955    2.176721666
   6  H       1.00    1.656850261   -0.956582955    2.176721666
   7  H       1.00    0.000000000   -1.913165910   -2.176721666
   8  H       1.00    0.000000000    1.913165910    2.176721666

 Bond lengths in Bohr (Angstrom)

 1-2  2.859271656  1-3  2.053860021  1-4  2.053860021  1-7  2.053860036  2-5  2.053860021
     ( 1.513061400)     ( 1.086855918)     ( 1.086855918)     ( 1.086855925)     ( 1.086855918)

 2-6  2.053860021  2-8  2.053860036
     ( 1.086855918)     ( 1.086855925)

 Bond angles

  1-2-5  111.33050375   1-2-6  111.33050375   1-2-8  111.33050359   2-1-3  111.33050375

  2-1-4  111.33050375   2-1-7  111.33050359   3-1-4  107.54963893   3-1-7  107.54963966

  4-1-7  107.54963966   5-2-6  107.54963893   5-2-8  107.54963966   6-2-8  107.54963966

 NUCLEAR CHARGE:                   18
 NUMBER OF PRIMITIVE AOS:          96
 NUMBER OF SYMMETRY AOS:           94
 NUMBER OF CONTRACTIONS:           58   (   19Ag  +   10Au  +   19Bu  +   10Bg  )
 NUMBER OF INNER CORE ORBITALS:     0   (    0Ag  +    0Au  +    0Bu  +    0Bg  )
 NUMBER OF OUTER CORE ORBITALS:     2   (    1Ag  +    0Au  +    1Bu  +    0Bg  )
 NUMBER OF VALENCE ORBITALS:       14   (    5Ag  +    2Au  +    5Bu  +    2Bg  )


 NUCLEAR REPULSION ENERGY   42.52694634


 Eigenvalues of metric

         1 0.139E-01 0.359E-01 0.377E-01 0.473E-01 0.110E+00 0.113E+00 0.142E+00 0.262E+00
         2 0.355E-01 0.546E-01 0.147E+00 0.320E+00 0.691E+00 0.909E+00 0.110E+01 0.140E+01
         3 0.508E-02 0.321E-01 0.355E-01 0.515E-01 0.546E-01 0.102E+00 0.142E+00 0.147E+00
         4 0.359E-01 0.377E-01 0.113E+00 0.262E+00 0.415E+00 0.907E+00 0.109E+01 0.111E+01


 Contracted 2-electron integrals neglected if value below      1.0D-11
 AO integral compression algorithm  1   Integral accuracy      1.0D-11

     2.884 MB (compressed) written to integral file ( 60.0%)


 NUMBER OF SORTED TWO-ELECTRON INTEGRALS:     390445.     BUFFER LENGTH:  32768
 NUMBER OF SEGMENTS:   1  SEGMENT LENGTH:     390445      RECORD LENGTH: 524288

 Memory used in sort:       0.95 MW

 SORT1 READ      570576. AND WROTE      378037. INTEGRALS IN      2 RECORDS. CPU TIME:     0.00 SEC, REAL TIME:     0.00 SEC
 SORT2 READ      378037. AND WROTE      390445. INTEGRALS IN     11 RECORDS. CPU TIME:     0.02 SEC, REAL TIME:     0.02 SEC

 FILE SIZES:   FILE 1:    33.1 MBYTE,  FILE 4:     8.5 MBYTE,   TOTAL:     41.5 MBYTE

 OPERATOR DM      FOR CENTER  0  COORDINATES:    0.000000    0.000000    0.000000


 **********************************************************************************************************************************
 DATASETS  * FILE   NREC   LENGTH (MB)   RECORD NAMES
              1      19       30.59       500      610      700      900      950      970     1000      129      960     1100   
                                          VAR    BASINP    GEOM    SYMINP    ZMAT    AOBASIS   BASIS     P2S    ABASIS      S 
                                         1400     1410     1200     1210     1080     1600     1650     1300     1700   
                                           T        V       H0       H01     AOSYM     SMH    MOLCAS    ERIS     OPER   

 PROGRAMS   *        TOTAL       INT
 CPU TIMES  *         0.35      0.26
 REAL TIME  *         0.88 SEC
 DISK USED  *        40.04 MB
 **********************************************************************************************************************************


 Program * Restricted Hartree-Fock

 Orbital guess generated from atomic densities. Full valence occupancy:    6   2   6   2

 Initial occupancy:   4   1   3   1

 NELEC=   18   SYM=1   MS2= 0   THRE=1.0D-08   THRD=3.2D-06   THRG=3.2D-06  HFMA2=F  DIIS_START=2   DIIS_MAX=10   DIIS_INCORE=F

 Level shifts:    0.00 (CLOSED)    0.00 (OPEN)    0.30 (GAP_MIN)

 ITER           ETOT              DE          GRAD        DDIFF     DIIS  NEXP   TIME(IT)  TIME(TOT)  DIAG
   1      -79.20393582     -79.20393582     0.00D+00     0.24D+00     0     0       0.01      0.01    start
   2      -79.23085976      -0.02692394     0.12D-01     0.26D-01     1     0       0.00      0.01    diag
   3      -79.23421780      -0.00335804     0.47D-02     0.93D-02     2     0       0.00      0.01    diag
   4      -79.23470335      -0.00048555     0.14D-02     0.32D-02     3     0       0.00      0.01    diag
   5      -79.23470931      -0.00000596     0.15D-03     0.52D-03     4     0       0.00      0.01    diag
   6      -79.23470936      -0.00000005     0.13D-04     0.56D-04     5     0       0.00      0.01    diag
   7      -79.23470936      -0.00000000     0.14D-05     0.33D-05     6     0       0.00      0.01    diag
   8      -79.23470936      -0.00000000     0.22D-06     0.75D-06     7     0       0.00      0.01    fixocc
   9      -79.23470936      -0.00000000     0.19D-07     0.63D-07     0     0       0.00      0.01    diag

 Final occupancy:   4   1   3   1

 !RHF STATE 1.1 Energy                -79.234709361240
  RHF One-electron energy            -189.580745222502
  RHF Two-electron energy              67.819089523575
  RHF Kinetic energy                   79.174685131729
  RHF Nuclear energy                   42.526946337687
  RHF Virial quotient                  -1.000758124007

 !RHF STATE 1.1 Dipole moment           0.00000000     0.00000000    -0.00000000
 Dipole moment /Debye                   0.00000000     0.00000000    -0.00000000

 Orbital energies:

           1.1          2.1          3.1          4.1          5.1          6.1
    -11.215722    -1.022041    -0.511754    -0.484673     0.187235     0.286897

           1.2          2.2          3.2
     -0.597522     0.255409     0.594155

           1.3          2.3          3.3          4.3          5.3
    -11.215101    -0.842275    -0.597522     0.236930     0.255409

           1.4          2.4          3.4
     -0.484673     0.286897     0.688236


 HOMO      1.4    -0.484673 =     -13.1886eV
 LUMO      5.1     0.187235 =       5.0949eV
 LUMO-HOMO         0.671909 =      18.2836eV

 Orbitals saved in record  2100.2


 **********************************************************************************************************************************
 DATASETS  * FILE   NREC   LENGTH (MB)   RECORD NAMES
              1      19       30.59       500      610      700      900      950      970     1000      129      960     1100   
                                          VAR    BASINP    GEOM    SYMINP    ZMAT    AOBASIS   BASIS     P2S    ABASIS      S 
                                         1400     1410     1200     1210     1080     1600     1650     1300     1700   
                                           T        V       H0       H01     AOSYM     SMH    MOLCAS    ERIS     OPER   

              2       4        0.51       700     1000      520     2100   
                                         GEOM     BASIS   MCVARS     RHF  

 PROGRAMS   *        TOTAL    HF-SCF       INT
 CPU TIMES  *         0.37      0.02      0.26
 REAL TIME  *         0.89 SEC
 DISK USED  *        40.04 MB
 **********************************************************************************************************************************


 PROGRAM * PAPT (Closed-shell)     Authors: C. Hampel, H.-J. Werner, 1991, P.J. Knowles, 2021


 CORETYPE=SMALL

 Convergence thresholds:  THRVAR = 1.00D-08  THRDEN = 1.00D-06

 Number of closed-shell orbitals:   9 (   4   1   3   1 )
 Number of external orbitals:      49 (  15   9  16   9 )

 Molecular orbitals read from record     2100.2  Type=RHF/CANONICAL  

 Number of N-1 electron functions:               9
 Number of N-2 electron functions:              45
 Number of singly external CSFs:               126
 Number of doubly external CSFs:             25059
 Total number of CSFs:                       25186

 Length of J-op  integral file:               0.00 MB
 Length of K-op  integral file:               0.13 MB

 Integral transformation finished. Total CPU:   0.01 sec, npass=  1  Memory used:   0.10 MW

 Reference energy:                    -79.23470936

                        CORR.ENERGY   TOTAL ENERGY   ENERGY CHANGE
 MP2:                   -0.30718479   -79.54189415    -0.30718479

 SCS-MP2 correlation energy:           -0.31278774   (PS=  1.200000  PT=  0.333333)
 SCS-MP2 total energy:                -79.54749710
 Iteration:   1     0.1720D+00
 Iteration:   2     0.7861D+00
 Iteration:   3     0.6916D-01
 Iteration:   4     0.1190D+01
 Iteration:   5     0.1423D-01
 Iteration:   6     0.3116D-01
 Iteration:   7     0.4578D-02
 Iteration:   8     0.3653D-02
 Iteration:   9     0.1549D-02
 Iteration:  10     0.3319D-03
 Iteration:  11     0.7092D-03
 Iteration:  12     0.9525D-04
 PAPT operator written to  7000.1
 PAPT orbitals and eigenvalues written to  7000.2

 MP3(D):                -0.33912692   -79.57383628    -0.03194213



 RESULTS
 =======

  Reference energy                    -79.234709361240

  Correlated core orbitals:             1.1       1.3
  Orbital energies:                   -11.2157  -11.2151

  MP3 core-core energy                 -0.001541627340
  MP3 core-valence energy              -0.004051315135
  MP3 valence correlation energy       -0.333533978708

  MP3 singlet pair energy              -0.243345411895
  MP3 triplet pair energy              -0.095781509289
  MP3 correlation energy               -0.339126921184

 !MP3 total energy                    -79.573836282424

 Timing summary (sec):

 STEP                 CPU(USER)    SYS     CPU(TOT)    WALL
 Transformation          0.01      0.00      0.01      0.01
 CCSD iterations         0.51      0.01      0.52      0.04

 Program statistics:

 Available memory in ccsd:              3145727672
 Min. memory needed in ccsd:                 81151
 Max. memory used in ccsd:                  101035
 Max. memory used in cckext:                124158 ( 1 integral passes)



 **********************************************************************************************************************************
 DATASETS  * FILE   NREC   LENGTH (MB)   RECORD NAMES
              1      21       31.06       500      610      700      900      950      970     1000      129      960     1100   
                                          VAR    BASINP    GEOM    SYMINP    ZMAT    AOBASIS   BASIS     P2S    ABASIS      S 
                                         1400     1410     1200     1210     1080     1600     1650     1300     1700     1380   
                                           T        V       H0       H01     AOSYM     SMH    MOLCAS    ERIS     OPER     JKOP   
                                         7000   
                                        PAPT AO    

              2       5        0.63       700     1000      520     2100     7000   
                                         GEOM     BASIS   MCVARS     RHF     PAPT   

 PROGRAMS   *        TOTAL      PAPT    HF-SCF       INT
 CPU TIMES  *         0.43      0.06      0.02      0.26
 REAL TIME  *         0.97 SEC
 DISK USED  *        40.04 MB
 **********************************************************************************************************************************


 PROGRAM * MP3 (Closed-shell)     Authors: C. Hampel, H.-J. Werner, 1991, M. Deegan, P.J. Knowles, 1992


 CORETYPE=SMALL

 Convergence thresholds:  THRVAR = 1.00D-08  THRDEN = 1.00D-06

 Number of closed-shell orbitals:   9 (   4   1   3   1 )
 Number of external orbitals:      49 (  15   9  16   9 )

 Molecular orbitals read from record     7000.2  Type=PAPT/CANONICAL (state 1.1)

 Number of N-1 electron functions:               9
 Number of N-2 electron functions:              45
 Number of singly external CSFs:               126
 Number of doubly external CSFs:             25059
 Total number of CSFs:                       25186

 Length of J-op  integral file:               0.00 MB
 Length of K-op  integral file:               0.13 MB

 Integral transformation finished. Total CPU:   0.00 sec, npass=  1  Memory used:   0.10 MW
 Orbital energies read from record       7000.2  Type=PAPT/CANONICAL (state 1.1)

 Reference energy:                    -79.23470936

                        CORR.ENERGY   TOTAL ENERGY   ENERGY CHANGE
 MP2:                   -0.34520703   -79.57991639    -0.34520703

 SCS-MP2 correlation energy:           -0.35359745   (PS=  1.200000  PT=  0.333333)
 SCS-MP2 total energy:                -79.58830682

 MP3(D):                -0.34539164   -79.58010100    -0.00018461



 RESULTS
 =======

  Reference energy                    -79.234709361240

  Correlated core orbitals:             1.1       1.3
  Orbital energies:                   -11.4219  -11.4127

  MP3 core-core energy                 -0.001529045938
  MP3 core-valence energy              -0.004005404394
  MP3 valence correlation energy       -0.339857190983

  MP3 singlet pair energy              -0.250732348316
  MP3 triplet pair energy              -0.094659292999
  MP3 correlation energy               -0.345391641314

 !MP3 total energy                    -79.580101002554

 Timing summary (sec):

 STEP                 CPU(USER)    SYS     CPU(TOT)    WALL
 Transformation          0.01      0.00      0.01      0.01
 CCSD iterations         0.55      0.00      0.55      0.02

 Program statistics:

 Available memory in ccsd:              3145727672
 Min. memory needed in ccsd:                 81151
 Max. memory used in ccsd:                  101035
 Max. memory used in cckext:                124158 ( 1 integral passes)



 **********************************************************************************************************************************
 DATASETS  * FILE   NREC   LENGTH (MB)   RECORD NAMES
              1      21       31.06       500      610      700      900      950      970     1000      129      960     1100   
                                          VAR    BASINP    GEOM    SYMINP    ZMAT    AOBASIS   BASIS     P2S    ABASIS      S 
                                         1400     1410     1200     1210     1080     1600     1650     1300     1700     1380   
                                           T        V       H0       H01     AOSYM     SMH    MOLCAS    ERIS     OPER     JKOP   
                                         7000   
                                        PAPT AO    

              2       5        0.63       700     1000      520     2100     7000   
                                         GEOM     BASIS   MCVARS     RHF     PAPT   

 PROGRAMS   *        TOTAL       MP3      PAPT    HF-SCF       INT
 CPU TIMES  *         0.48      0.03      0.06      0.02      0.26
 REAL TIME  *         1.03 SEC
 DISK USED  *        40.04 MB
 **********************************************************************************************************************************

 Dump information in style XML to xml output                                                                      

 Orbitals will not be exported.

 **********************************************************************************************************************************

 MP3/cc-pVDZ energy=    -79.580101002554

             MP3            PAPT          HF-SCF
    -79.58010100    -79.57383628    -79.23470936
 **********************************************************************************************************************************
 Molpro calculation terminated
