
 Working directory              : /var/folders/2v/xbgp75_9785319ghcgb4zr4r0000gr/T//molpro.Inm30biBwU/
 Global scratch directory       : /var/folders/2v/xbgp75_9785319ghcgb4zr4r0000gr/T//molpro.Inm30biBwU/
 Wavefunction directory         : /Users/peterk/wfu/
 Main file repository           : /var/folders/2v/xbgp75_9785319ghcgb4zr4r0000gr/T//molpro.Inm30biBwU/

 id        : peterk

 Nodes        nprocs
 pjk2022.local    1
 GA implementation: MPI file
 GA implementation (serial work in mppx): MPI file

 Using customized tuning parameters: mindgm=1; mindgv=20; mindgc=4; mindgr=1; noblas=0; minvec=7
 default implementation of scratch files=df  


 Variables initialized (1037), CPU time= 0.01 sec
 
 
 
 geometry={
 10
  C     0.3094552    1.4885766    0.4289354
  C     0.0086953    0.7307683   -0.6178885
  C    -0.0086953   -0.7307683   -0.6178885
  C    -0.3094552   -1.4885766    0.4289354
  H    -0.2198754    1.2121312   -1.5596547
  H     0.2918854    2.5648378    0.3671684
  H     0.5938825    1.0525743    1.3749643
  H     0.2198754   -1.2121312   -1.5596547
  H    -0.5938825   -1.0525743    1.3749643
  H    -0.2918854   -2.5648378    0.3671684
 }
 basis=cc-pVTZ
 core,small
 
 
 hf; ccsd
 
 
 
 {put,xml;noorbitals,nobasis}
 Commands initialized (841), CPU time= 0.00 sec, 716 directives.
 Default parameters read. Elapsed time= 0.06 sec

 Checking input...
 Passed
1


                                         ***  PROGRAM SYSTEM MOLPRO  ***
                                       Copyright, TTI GmbH Stuttgart, 2015
                                    Version 2023.1 linked Sat Jul 22 07:59:25 2023


 **********************************************************************************************************************************
 LABEL *                                                                                                                                                                 
  64 bit serial version                                                                  DATE: 02-Aug-23          TIME: 09:28:09  
 **********************************************************************************************************************************

 SHA1:             401d111a1dbfa49388eacdf0424f85138b2d30d0
 **********************************************************************************************************************************

 Memory per process:      3146 MW
 Total memory per node:   4194 MW
 Total GA space:          1049 MW

 GA preallocation disabled
 GA check enabled

 Geometry recognized as XYZ


 Variable memory set to 3145.7 MW

 SETTING BASIS          =    CC-PVTZ


 Recomputing integrals since basis changed


 Using spherical harmonics

 Library entry C      S cc-pVTZ              selected for orbital group  1
 Library entry C      P cc-pVTZ              selected for orbital group  1
 Library entry C      D cc-pVTZ              selected for orbital group  1
 Library entry C      F cc-pVTZ              selected for orbital group  1
 Library entry H      S cc-pVTZ              selected for orbital group  2
 Library entry H      P cc-pVTZ              selected for orbital group  2
 Library entry H      D cc-pVTZ              selected for orbital group  2


 PROGRAM * SEWARD (Integral evaluation for generally contracted gaussian basis sets)     Author: Roland Lindh, 1990

 Geometry written to block  1 of record 700


 Point group  C2  



 ATOMIC COORDINATES

 NR  ATOM    CHARGE       X              Y              Z

   1  C       6.00    0.584785576    2.813002090    0.810570431
   2  C       6.00   -0.584785576   -2.813002090    0.810570431
   3  C       6.00    0.016431736    1.380951948   -1.167640041
   4  C       6.00   -0.016431736   -1.380951948   -1.167640041
   5  H       1.00   -0.415504288    2.290595995   -2.947320232
   6  H       1.00    0.415504288   -2.290595995   -2.947320232
   7  H       1.00    0.551583466    4.846840996    0.693847718
   8  H       1.00   -0.551583466   -4.846840996    0.693847718
   9  H       1.00    1.122275275    1.989077153    2.598305958
  10  H       1.00   -1.122275275   -1.989077153    2.598305958

 Bond lengths in Bohr (Angstrom)

 1-3  2.507411089  1-7  2.037456078  1-9  2.040525862  2-4  2.507411089  2-8  2.037456078
     ( 1.326864806)     ( 1.078175325)     ( 1.079799784)     ( 1.326864806)     ( 1.078175325)

  2-10  2.040525862   3- 4  2.762099407   3- 5  2.044818477   4- 6  2.044818477
       ( 1.079799784)       ( 1.461640060)       ( 1.082071339)       ( 1.082071339)

 Bond angles

  1-3-4  125.01448279   1-3-5  118.71549854   2-4-3  125.01448279   2-4-6  118.71549854

  3-1-7  121.41424336   3-1-9  121.35260511   3-4-6  116.25126208   4-2-8  121.41424336

  4- 2-10  121.35260511   4- 3- 5  116.25126208   7- 1- 9  117.22896990   8- 2-10  117.22896990

 NUCLEAR CHARGE:                   30
 NUMBER OF PRIMITIVE AOS:         290
 NUMBER OF SYMMETRY AOS:          264
 NUMBER OF CONTRACTIONS:          204   (  102A   +  102B   )
 NUMBER OF INNER CORE ORBITALS:     0   (    0A   +    0B   )
 NUMBER OF OUTER CORE ORBITALS:     4   (    2A   +    2B   )
 NUMBER OF VALENCE ORBITALS:       22   (   11A   +   11B   )


 NUCLEAR REPULSION ENERGY  105.60425655

 Eigenvalues of metric

         1 0.665E-03 0.106E-02 0.140E-02 0.142E-02 0.185E-02 0.331E-02 0.587E-02 0.763E-02
         2 0.371E-03 0.609E-03 0.852E-03 0.118E-02 0.136E-02 0.152E-02 0.198E-02 0.333E-02


 Contracted 2-electron integrals neglected if value below      1.0D-11
 AO integral compression algorithm  1   Integral accuracy      1.0D-11

     544.735 MB (compressed) written to integral file ( 51.5%)


 NUMBER OF SORTED TWO-ELECTRON INTEGRALS:  110381289.     BUFFER LENGTH:  32768
 NUMBER OF SEGMENTS:   7  SEGMENT LENGTH:   15999384      RECORD LENGTH: 524288

 Memory used in sort:      16.56 MW

 SORT1 READ   132338616. AND WROTE   108830559. INTEGRALS IN    314 RECORDS. CPU TIME:     0.93 SEC, REAL TIME:     1.23 SEC
 SORT2 READ   108830559. AND WROTE   110381289. INTEGRALS IN   2078 RECORDS. CPU TIME:     0.71 SEC, REAL TIME:     0.92 SEC

 FILE SIZES:   FILE 1:   575.9 MBYTE,  FILE 4:  1317.1 MBYTE,   TOTAL:   1893.0 MBYTE

 OPERATOR DM      FOR CENTER  0  COORDINATES:    0.000000    0.000000    0.000000


 **********************************************************************************************************************************
 DATASETS  * FILE   NREC   LENGTH (MB)   RECORD NAMES
              1      19      477.88       500      610      700      900      950      970     1000      129      960     1100   
                                          VAR    BASINP    GEOM    SYMINP    ZMAT    AOBASIS   BASIS     P2S    ABASIS      S 
                                         1400     1410     1200     1210     1080     1600     1650     1300     1700   
                                           T        V       H0       H01     AOSYM     SMH    MOLCAS    ERIS     OPER   

 PROGRAMS   *        TOTAL       INT
 CPU TIMES  *         6.69      6.60
 REAL TIME  *         8.03 SEC
 DISK USED  *         1.76 GB
 **********************************************************************************************************************************


 Program * Restricted Hartree-Fock

 Orbital guess generated from atomic densities. Full valence occupancy:   13  13

 Initial occupancy:   8   7

 NELEC=   30   SYM=1   MS2= 0   THRE=1.0D-08   THRD=3.2D-06   THRG=3.2D-06  HFMA2=F  DIIS_START=2   DIIS_MAX=10   DIIS_INCORE=F

 Level shifts:    0.00 (CLOSED)    0.00 (OPEN)    0.30 (GAP_MIN)

 ITER           ETOT              DE          GRAD        DDIFF     DIIS  NEXP   TIME(IT)  TIME(TOT)  DIAG
   1     -154.92619463    -154.92619463     0.00D+00     0.74D-01     0     0       0.27      0.51    start
   2     -154.96748176      -0.04128713     0.46D-02     0.65D-02     1     0       0.27      0.78    diag
   3     -154.97197852      -0.00449675     0.16D-02     0.18D-02     2     0       0.28      1.06    diag
   4     -154.97262733      -0.00064882     0.50D-03     0.77D-03     3     0       0.28      1.34    diag
   5     -154.97264062      -0.00001329     0.68D-04     0.14D-03     4     0       0.27      1.61    diag
   6     -154.97264249      -0.00000187     0.30D-04     0.42D-04     5     0       0.28      1.89    diag
   7     -154.97264270      -0.00000021     0.74D-05     0.15D-04     6     0       0.28      2.17    diag
   8     -154.97264273      -0.00000002     0.20D-05     0.51D-05     7     0       0.27      2.44    fixocc
   9     -154.97264273      -0.00000000     0.52D-06     0.13D-05     8     0       0.28      2.72    diag
  10     -154.97264273      -0.00000000     0.15D-06     0.21D-06     0     0       0.27      2.99    diag/orth

 Final occupancy:   8   7

 !RHF STATE 1.1 Energy               -154.972642729258
  RHF One-electron energy            -416.700353014180
  RHF Two-electron energy             156.123453730854
  RHF Kinetic energy                  154.854690052368
  RHF Nuclear energy                  105.604256554068
  RHF Virial quotient                  -1.000761699093

 !RHF STATE 1.1 Dipole moment           0.00000000     0.00000000    -0.03858030
 Dipole moment /Debye                   0.00000000     0.00000000    -0.09806134

 Orbital energies:

           1.1          2.1          3.1          4.1          5.1          6.1          7.1          8.1          9.1         10.1
    -11.234363   -11.223474    -1.093375    -0.842605    -0.671564    -0.609483    -0.496670    -0.330069     0.154698     0.170313

           1.2          2.2          3.2          4.2          5.2          6.2          7.2          8.2          9.2
    -11.233553   -11.223474    -0.995414    -0.728240    -0.590998    -0.523023    -0.430415     0.109986     0.178386


 HOMO      8.1    -0.330069 =      -8.9816eV
 LUMO      8.2     0.109986 =       2.9929eV
 LUMO-HOMO         0.440055 =      11.9745eV

 Orbitals saved in record  2100.2


 **********************************************************************************************************************************
 DATASETS  * FILE   NREC   LENGTH (MB)   RECORD NAMES
              1      19      477.88       500      610      700      900      950      970     1000      129      960     1100   
                                          VAR    BASINP    GEOM    SYMINP    ZMAT    AOBASIS   BASIS     P2S    ABASIS      S 
                                         1400     1410     1200     1210     1080     1600     1650     1300     1700   
                                           T        V       H0       H01     AOSYM     SMH    MOLCAS    ERIS     OPER   

              2       4        0.88       700     1000      520     2100   
                                         GEOM     BASIS   MCVARS     RHF  

 PROGRAMS   *        TOTAL    HF-SCF       INT
 CPU TIMES  *         9.69      3.00      6.60
 REAL TIME  *        11.57 SEC
 DISK USED  *         1.76 GB
 **********************************************************************************************************************************


 PROGRAM * CCSD (Closed-shell coupled cluster)     Authors: C. Hampel, H.-J. Werner, 1991, M. Deegan, P.J. Knowles, 1992


 CORETYPE=SMALL

 Convergence thresholds:  THRVAR = 1.00D-08  THRDEN = 1.00D-06

 Number of closed-shell orbitals:  15 (   8   7 )
 Number of external orbitals:     189 (  94  95 )

 Molecular orbitals read from record     2100.2  Type=RHF/CANONICAL  

 Number of N-1 electron functions:              15
 Number of N-2 electron functions:             120
 Number of singly external CSFs:              1417
 Number of doubly external CSFs:           2010724
 Total number of CSFs:                     2012142

 Length of J-op  integral file:               0.00 MB
 Length of K-op  integral file:               1.49 MB
 Length of 3-ext integral record:             0.00 MB

 Integral transformation finished. Total CPU:   3.13 sec, npass=  1  Memory used:  28.08 MW

 Reference energy:                   -154.97264273

 MP2 singlet pair energy:              -0.47686532
 MP2 triplet pair energy:              -0.23547600
 MP2 correlation energy:               -0.71234132
 MP2 total energy:                   -155.68498405

 SCS-MP2 correlation energy:           -0.71875678   (PS=  1.200000  PT=  0.333333)
 SCS-MP2 total energy:               -155.69139951

 ITER.      SQ.NORM     CORR.ENERGY   TOTAL ENERGY   ENERGY CHANGE        DEN1      VAR(S)    VAR(P)  DIIS     TIME  TIME/IT
   1      1.23611487    -0.74637613  -155.71901886    -0.03403481    -0.01557118  0.29D-02  0.38D-02  1  1    15.37     2.49
   2      1.25451567    -0.74965596  -155.72229869    -0.00327983    -0.01700138  0.51D-04  0.63D-03  2  2    18.08     2.67
   3      1.26223931    -0.74992610  -155.72256883    -0.00027014    -0.00365215  0.23D-04  0.71D-04  3  3    20.69     2.71
   4      1.26590864    -0.74999996  -155.72264269    -0.00007386    -0.00123743  0.12D-05  0.85D-05  4  4    23.27     2.72
   5      1.26688036    -0.75001382  -155.72265655    -0.00001386    -0.00018471  0.18D-06  0.89D-06  5  5    25.82     2.71
   6      1.26709744    -0.75001085  -155.72265358     0.00000297    -0.00001967  0.13D-07  0.94D-07  6  6    28.60     2.75
   7      1.26712763    -0.75001065  -155.72265338     0.00000020    -0.00000348  0.75D-08  0.14D-07  6  2    31.35     2.78
   8      1.26713352    -0.75001039  -155.72265312     0.00000026    -0.00000018  0.16D-08  0.22D-08  6  1    33.98     2.78

 Norm of t1 vector:      0.07342317      S-energy:    -0.00000008      T1 diagnostic:  0.00947889
                                                                       D1 diagnostic:  0.03263151
                                                                       D2 diagnostic:  0.20225190 (internal)

 Doubles amplitudes (print threshold =  0.500E-01):

         I         J         SYM. A    SYM. B    A         B      T(IJ, AB)

         8         8         2         2         1         1     -0.08881275
        15        15         2         2         1         1     -0.05692190


 RESULTS
 =======

  Reference energy                   -154.972642729258

  Correlated core orbitals:             1.1       2.1       1.2       2.2
  Orbital energies:                   -11.2344  -11.2235  -11.2336  -11.2235

  CCSD core-core energy                -0.041252773574
  CCSD core-valence energy             -0.024335690232
  CCSD valence correlation energy      -0.684421926891

  CCSD singlet pair energy             -0.534277108192
  CCSD triplet pair energy             -0.215733199029
  CCSD correlation energy              -0.750010390697

 !CCSD total energy                  -155.722653119955

 Timing summary (sec):

 STEP                 CPU(USER)    SYS     CPU(TOT)    WALL
 Transformation          3.16      0.26      3.42      3.41
 CCSD iterations        30.87      1.23     32.10     22.32

 Program statistics:

 Available memory in ccsd:              3145727092
 Min. memory needed in ccsd:               5028471
 Max. memory used in ccsd:                 6861032
 Max. memory used in cckext:               6244466 ( 8 integral passes)



 **********************************************************************************************************************************
 DATASETS  * FILE   NREC   LENGTH (MB)   RECORD NAMES
              1      20      701.01       500      610      700      900      950      970     1000      129      960     1100   
                                          VAR    BASINP    GEOM    SYMINP    ZMAT    AOBASIS   BASIS     P2S    ABASIS      S 
                                         1400     1410     1200     1210     1080     1600     1650     1300     1700     1380   
                                           T        V       H0       H01     AOSYM     SMH    MOLCAS    ERIS     OPER     JKOP   

              2       4        0.88       700     1000      520     2100   
                                         GEOM     BASIS   MCVARS     RHF  

 PROGRAMS   *        TOTAL      CCSD    HF-SCF       INT
 CPU TIMES  *        33.94     24.24      3.00      6.60
 REAL TIME  *        37.38 SEC
 DISK USED  *         1.76 GB
 **********************************************************************************************************************************

 Dump information in style XML to xml output                                                                      

 Orbitals will not be exported.

 **********************************************************************************************************************************

 CCSD/cc-pVTZ energy=   -155.722653119955

            CCSD          HF-SCF
   -155.72265312   -154.97264273
 **********************************************************************************************************************************
 Molpro calculation terminated
