
 Working directory              : /var/folders/2v/xbgp75_9785319ghcgb4zr4r0000gr/T//molpro.FMwxLkgqvk/
 Global scratch directory       : /var/folders/2v/xbgp75_9785319ghcgb4zr4r0000gr/T//molpro.FMwxLkgqvk/
 Wavefunction directory         : /Users/peterk/wfu/
 Main file repository           : /var/folders/2v/xbgp75_9785319ghcgb4zr4r0000gr/T//molpro.FMwxLkgqvk/

 id        : peterk

 Nodes        nprocs
 pjk2022.local    1
 GA implementation: MPI file
 GA implementation (serial work in mppx): MPI file

 Using customized tuning parameters: mindgm=1; mindgv=20; mindgc=4; mindgr=1; noblas=0; minvec=7
 default implementation of scratch files=df  


 Variables initialized (1037), CPU time= 0.01 sec
 
 
 
 geometry={
 16
  C    -1.5509383   -0.3046782    0.7974216
  C    -2.9173600   -0.2572608    0.4520777
  C    -3.1153913    0.0500720   -0.8576504
  S    -1.6397192    0.3001116   -1.6704985
  C    -0.7216777   -0.0254094   -0.2541573
  C     0.7216777    0.0254094   -0.2541573
  S     1.6397192   -0.3001116   -1.6704985
  C     3.1153913   -0.0500720   -0.8576504
  C     2.9173600    0.2572608    0.4520777
  C     1.5509383    0.3046782    0.7974216
  H    -1.1822260   -0.5588506    1.7767451
  H    -3.7197698   -0.4531472    1.1427536
  H    -4.0457132    0.1435962   -1.3858704
  H     4.0457132   -0.1435962   -1.3858704
  H     3.7197698    0.4531472    1.1427536
  H     1.1822260    0.5588506    1.7767451
 }
 basis=cc-pVTZ
 core,small
 
 
 hf; papt;mp2
 
 
 
 {put,xml;noorbitals,nobasis}
 Commands initialized (841), CPU time= 0.00 sec, 716 directives.
 Default parameters read. Elapsed time= 0.05 sec

 Checking input...
 Passed
1


                                         ***  PROGRAM SYSTEM MOLPRO  ***
                                       Copyright, TTI GmbH Stuttgart, 2015
                                    Version 2023.1 linked Sat Jul 22 07:59:25 2023


 **********************************************************************************************************************************
 LABEL *                                                                                                                                                                 
  64 bit serial version                                                                  DATE: 01-Aug-23          TIME: 22:04:02  
 **********************************************************************************************************************************

 SHA1:             401d111a1dbfa49388eacdf0424f85138b2d30d0
 **********************************************************************************************************************************

 Memory per process:      3146 MW
 Total memory per node:   4194 MW
 Total GA space:          1049 MW

 GA preallocation disabled
 GA check enabled

 Geometry recognized as XYZ


 Variable memory set to 3145.7 MW

 SETTING BASIS          =    CC-PVTZ


 Recomputing integrals since basis changed


 Using spherical harmonics

 Library entry C      S cc-pVTZ              selected for orbital group  1
 Library entry C      P cc-pVTZ              selected for orbital group  1
 Library entry C      D cc-pVTZ              selected for orbital group  1
 Library entry C      F cc-pVTZ              selected for orbital group  1
 Library entry S      S cc-pVTZ              selected for orbital group  2
 Library entry S      P cc-pVTZ              selected for orbital group  2
 Library entry S      D cc-pVTZ              selected for orbital group  2
 Library entry S      F cc-pVTZ              selected for orbital group  2
 Library entry H      S cc-pVTZ              selected for orbital group  4
 Library entry H      P cc-pVTZ              selected for orbital group  4
 Library entry H      D cc-pVTZ              selected for orbital group  4


 PROGRAM * SEWARD (Integral evaluation for generally contracted gaussian basis sets)     Author: Roland Lindh, 1990

 Geometry written to block  1 of record 700


 Point group  C2  



 ATOMIC COORDINATES

 NR  ATOM    CHARGE       X              Y              Z

   1  C       6.00   -2.930848623   -0.575758354    1.506908430
   2  C       6.00    2.930848623    0.575758354    1.506908430
   3  C       6.00   -5.513011407   -0.486152455    0.854303040
   4  C       6.00    5.513011407    0.486152455    0.854303040
   5  C       6.00   -5.887236328    0.094622367   -1.620724367
   6  C       6.00    5.887236328   -0.094622367   -1.620724367
   7  S      16.00   -3.098620209    0.567128731   -3.156784657
   8  S      16.00    3.098620209   -0.567128731   -3.156784657
   9  C       6.00   -1.363773203   -0.048016807   -0.480287690
  10  C       6.00    1.363773203    0.048016807   -0.480287690
  11  H       1.00   -2.234083357   -1.056074579    3.357561632
  12  H       1.00    2.234083357    1.056074579    3.357561632
  13  H       1.00   -7.029346169   -0.856324102    2.159491332
  14  H       1.00    7.029346169    0.856324102    2.159491332
  15  H       1.00   -7.645289927    0.271357491   -2.618915500
  16  H       1.00    7.645289927   -0.271357491   -2.618915500

 Bond lengths in Bohr (Angstrom)

  1- 3  2.664861658   1- 9  2.585185666   1-11  2.034969972   2- 4  2.664861658   2-10  2.585185666
       ( 1.410184059)       ( 1.368021341)       ( 1.076859734)       ( 1.410184059)       ( 1.368021341)

  2-12  2.034969972   3- 5  2.569650628   3-13  2.034653444   4- 6  2.569650628   4-14  2.034653444
       ( 1.076859734)       ( 1.359800552)       ( 1.076692234)       ( 1.359800552)       ( 1.076692234)

  5- 7  3.218559202   5-15  2.029377564   6- 8  3.218559202   6-16  2.029377564   7- 9  3.248343298
       ( 1.703188182)       ( 1.073900359)       ( 1.703188182)       ( 1.073900359)       ( 1.718949246)

  8-10  3.248343298   9-10  2.729236497
       ( 1.718949246)       ( 1.444249757)

 Bond angles

  1- 3- 5  112.61815700   1- 3-13  123.98085311   1- 9- 7  110.38229586   1- 9-10  127.80550087

  2- 4- 6  112.61815700   2- 4-14  123.98085311   2-10- 8  110.38229586   2-10- 9  127.80550087

  3- 1- 9  113.09481155   3- 1-11  124.22321755   3- 5- 7  111.51091915   3- 5-15  128.28716095

  4- 2-10  113.09481155   4- 2-12  124.22321755   4- 6- 8  111.51091915   4- 6-16  128.28716095

  5- 3-13  123.39747657   5- 7- 9   92.38953509   6- 4-14  123.39747657   6- 8-10   92.38953509

  7- 5-15  120.20187923   7- 9-10  121.80818252   8- 6-16  120.20187923   8-10- 9  121.80818252

  9- 1-11  122.66282548  10- 2-12  122.66282548

 NUCLEAR CHARGE:                   86
 NUMBER OF PRIMITIVE AOS:         606
 NUMBER OF SYMMETRY AOS:          550
 NUMBER OF CONTRACTIONS:          392   (  196A   +  196B   )
 NUMBER OF INNER CORE ORBITALS:     2   (    1A   +    1B   )
 NUMBER OF OUTER CORE ORBITALS:    16   (    8A   +    8B   )
 NUMBER OF VALENCE ORBITALS:       46   (   23A   +   23B   )


 NUCLEAR REPULSION ENERGY  639.94940090


 Eigenvalues of metric

         1 0.950E-04 0.510E-03 0.772E-03 0.945E-03 0.996E-03 0.126E-02 0.127E-02 0.135E-02
         2 0.659E-04 0.978E-04 0.457E-03 0.606E-03 0.822E-03 0.909E-03 0.112E-02 0.121E-02


 Contracted 2-electron integrals neglected if value below      1.0D-11
 AO integral compression algorithm  1   Integral accuracy      1.0D-11

     6231.163 MB (compressed) written to integral file ( 46.9%)


 NUMBER OF SORTED TWO-ELECTRON INTEGRALS: 1490905850.     BUFFER LENGTH:  32768
 NUMBER OF SEGMENTS:  47  SEGMENT LENGTH:   31999968      RECORD LENGTH: 524288

 Memory used in sort:      32.56 MW

 SORT1 READ  1662292048. AND WROTE  1436425627. INTEGRALS IN   4136 RECORDS. CPU TIME:    15.21 SEC, REAL TIME:    19.87 SEC
 SORT2 READ  1436425627. AND WROTE  1490905850. INTEGRALS IN  23770 RECORDS. CPU TIME:     8.58 SEC, REAL TIME:    18.52 SEC

 FILE SIZES:   FILE 1:  6265.3 MBYTE,  FILE 4: 17347.7 MBYTE,   TOTAL:  23613.0 MBYTE
