
 Working directory              : /var/folders/2v/xbgp75_9785319ghcgb4zr4r0000gr/T//molpro.Lhj121zXRx/
 Global scratch directory       : /var/folders/2v/xbgp75_9785319ghcgb4zr4r0000gr/T//molpro.Lhj121zXRx/
 Wavefunction directory         : /Users/peterk/wfu/
 Main file repository           : /var/folders/2v/xbgp75_9785319ghcgb4zr4r0000gr/T//molpro.Lhj121zXRx/

 id        : peterk

 Nodes        nprocs
 pjk2022.local    1
 GA implementation: MPI file
 GA implementation (serial work in mppx): MPI file

 Using customized tuning parameters: mindgm=1; mindgv=20; mindgc=4; mindgr=1; noblas=0; minvec=7
 default implementation of scratch files=df  


 Variables initialized (1037), CPU time= 0.00 sec
 
 
 
 geometry={
 7
  C    -0.2143504    0.9533214    0.0000000
  N    -0.1118448   -0.5782992    0.0000000
  H     0.8108410   -1.0328730    0.0000000
  H    -0.6149312   -0.9202851    0.8074929
  H    -0.6149312   -0.9202851   -0.8074929
  H     0.3726083    1.2492105    0.8729349
  H     0.3726083    1.2492105   -0.8729349
 }
 basis=cc-pVTZ
 core,small
 
 
 hf; papt;mp4
 
 
 
 {put,xml;noorbitals,nobasis}
 Commands initialized (841), CPU time= 0.00 sec, 716 directives.
 Default parameters read. Elapsed time= 0.05 sec

 Checking input...
 Passed
1


                                         ***  PROGRAM SYSTEM MOLPRO  ***
                                       Copyright, TTI GmbH Stuttgart, 2015
                                    Version 2023.1 linked Sat Jul 22 07:59:25 2023


 **********************************************************************************************************************************
 LABEL *                                                                                                                                                                 
  64 bit serial version                                                                  DATE: 02-Aug-23          TIME: 02:09:27  
 **********************************************************************************************************************************

 SHA1:             401d111a1dbfa49388eacdf0424f85138b2d30d0
 **********************************************************************************************************************************

 Memory per process:      3146 MW
 Total memory per node:   4194 MW
 Total GA space:          1049 MW

 GA preallocation disabled
 GA check enabled

 Geometry recognized as XYZ


 Variable memory set to 3145.7 MW

 SETTING BASIS          =    CC-PVTZ


 Recomputing integrals since basis changed


 Using spherical harmonics

 Library entry C      S cc-pVTZ              selected for orbital group  1
 Library entry C      P cc-pVTZ              selected for orbital group  1
 Library entry C      D cc-pVTZ              selected for orbital group  1
 Library entry C      F cc-pVTZ              selected for orbital group  1
 Library entry N      S cc-pVTZ              selected for orbital group  2
 Library entry N      P cc-pVTZ              selected for orbital group  2
 Library entry N      D cc-pVTZ              selected for orbital group  2
 Library entry N      F cc-pVTZ              selected for orbital group  2
 Library entry H      S cc-pVTZ              selected for orbital group  3
 Library entry H      P cc-pVTZ              selected for orbital group  3
 Library entry H      D cc-pVTZ              selected for orbital group  3


 PROGRAM * SEWARD (Integral evaluation for generally contracted gaussian basis sets)     Author: Roland Lindh, 1990

 Geometry written to block  1 of record 700


 Point group  Cs  



 ATOMIC COORDINATES

 NR  ATOM    CHARGE       X              Y              Z

   1  C       6.00   -0.405063551    1.801516355    0.000000000
   2  N       7.00   -0.211356040   -1.092827106    0.000000000
   3  H       1.00    1.532267421   -1.951847092    0.000000000
   4  H       1.00   -1.162051553   -1.739086796    1.525940429
   5  H       1.00   -1.162051553   -1.739086796   -1.525940429
   6  H       1.00    0.704127639    2.360665717    1.649607886
   7  H       1.00    0.704127639    2.360665717   -1.649607886

 Bond lengths in Bohr (Angstrom)

 1-2  2.900818276  1-6  2.064984087  1-7  2.064984087  2-3  1.943743324  2-4  1.910488874
     ( 1.535046924)     ( 1.092742520)     ( 1.092742520)     ( 1.028584671)     ( 1.010987174)

 2-5  1.910488874
     ( 1.010987174)

 Bond angles

  1-2-3  120.05667508   1-2-4  107.71514152   1-2-5  107.71514152   2-1-6  103.55057035

  2-1-7  103.55057035   3-2-4  107.27096932   3-2-5  107.27096932   4-2-5  106.01556643

  6-1-7  106.04042148

 NUCLEAR CHARGE:                   18
 NUMBER OF PRIMITIVE AOS:         179
 NUMBER OF SYMMETRY AOS:          164
 NUMBER OF CONTRACTIONS:          130   (   78A'  +   52A"  )
 NUMBER OF INNER CORE ORBITALS:     0   (    0A'  +    0A"  )
 NUMBER OF OUTER CORE ORBITALS:     2   (    2A'  +    0A"  )
 NUMBER OF VALENCE ORBITALS:       13   (    9A'  +    4A"  )


 NUCLEAR REPULSION ENERGY   41.75965206

 Eigenvalues of metric

         1 0.120E-02 0.140E-02 0.236E-02 0.274E-02 0.414E-02 0.560E-02 0.809E-02 0.109E-01
         2 0.178E-02 0.279E-02 0.786E-02 0.107E-01 0.219E-01 0.297E-01 0.351E-01 0.423E-01


 Contracted 2-electron integrals neglected if value below      1.0D-11
 AO integral compression algorithm  1   Integral accuracy      1.0D-11

     93.848 MB (compressed) written to integral file ( 53.0%)


 NUMBER OF SORTED TWO-ELECTRON INTEGRALS:   18434806.     BUFFER LENGTH:  32768
 NUMBER OF SEGMENTS:   2  SEGMENT LENGTH:   15994654      RECORD LENGTH: 524288

 Memory used in sort:      16.55 MW

 SORT1 READ    22165393. AND WROTE    18266279. INTEGRALS IN     53 RECORDS. CPU TIME:     0.16 SEC, REAL TIME:     0.20 SEC
 SORT2 READ    18266279. AND WROTE    18434806. INTEGRALS IN    358 RECORDS. CPU TIME:     0.18 SEC, REAL TIME:     0.21 SEC

 FILE SIZES:   FILE 1:   124.4 MBYTE,  FILE 4:   222.4 MBYTE,   TOTAL:    346.8 MBYTE

 OPERATOR DM      FOR CENTER  0  COORDINATES:    0.000000    0.000000    0.000000


 **********************************************************************************************************************************
 DATASETS  * FILE   NREC   LENGTH (MB)   RECORD NAMES
              1      19      105.23       500      610      700      900      950      970     1000      129      960     1100   
                                          VAR    BASINP    GEOM    SYMINP    ZMAT    AOBASIS   BASIS     P2S    ABASIS      S 
                                         1400     1410     1200     1210     1080     1600     1650     1300     1700   
                                           T        V       H0       H01     AOSYM     SMH    MOLCAS    ERIS     OPER   

 PROGRAMS   *        TOTAL       INT
 CPU TIMES  *         1.33      1.24
 REAL TIME  *         1.94 SEC
 DISK USED  *       331.14 MB
 **********************************************************************************************************************************


 Program * Restricted Hartree-Fock

 Orbital guess generated from atomic densities. Full valence occupancy:   11   4

 Initial occupancy:   7   2

 NELEC=   18   SYM=1   MS2= 0   THRE=1.0D-08   THRD=3.2D-06   THRG=3.2D-06  HFMA2=F  DIIS_START=2   DIIS_MAX=10   DIIS_INCORE=F

 Level shifts:    0.00 (CLOSED)    0.00 (OPEN)    0.30 (GAP_MIN)

 ITER           ETOT              DE          GRAD        DDIFF     DIIS  NEXP   TIME(IT)  TIME(TOT)  DIAG
   1      -95.07230288     -95.07230288     0.00D+00     0.86D-01     0     0       0.05      0.09    start
   2      -95.13340839      -0.06110551     0.97D-02     0.13D-01     1     0       0.05      0.14    diag
   3      -95.14498566      -0.01157727     0.45D-02     0.46D-02     2     0       0.05      0.19    diag
   4      -95.14581795      -0.00083228     0.87D-03     0.11D-02     3     0       0.05      0.24    diag
   5      -95.14590516      -0.00008722     0.25D-03     0.39D-03     4     0       0.04      0.28    diag
   6      -95.14591676      -0.00001160     0.93D-04     0.16D-03     5     0       0.05      0.33    diag
   7      -95.14591850      -0.00000174     0.32D-04     0.66D-04     6     0       0.05      0.38    diag
   8      -95.14591872      -0.00000022     0.85D-05     0.27D-04     7     0       0.05      0.43    fixocc
   9      -95.14591874      -0.00000002     0.22D-05     0.72D-05     8     0       0.05      0.48    diag
  10      -95.14591874      -0.00000000     0.61D-06     0.22D-05     9     0       0.05      0.53    diag/orth
  11      -95.14591874      -0.00000000     0.15D-06     0.35D-06     0     0       0.05      0.58    diag

 Final occupancy:   7   2

 !RHF STATE 1.1 Energy                -95.145918740022
  RHF One-electron energy            -210.421815924503
  RHF Two-electron energy              73.516245126471
  RHF Kinetic energy                   95.081535563320
  RHF Nuclear energy                   41.759652058010
  RHF Virial quotient                  -1.000677136484

 !RHF STATE 1.1 Dipole moment           0.61318360    -2.10942790     0.00000000
 Dipole moment /Debye                   1.55855726    -5.36163092     0.00000000

 Orbital energies:

           1.1          2.1          3.1          4.1          5.1          6.1          7.1          8.1          9.1
    -15.660336   -11.155631    -1.268665    -0.851802    -0.730271    -0.557702    -0.263977     0.101968     0.170321

           1.2          2.2          3.2          4.2
     -0.736186    -0.470094     0.174307     0.257469


 HOMO      7.1    -0.263977 =      -7.1832eV
 LUMO      8.1     0.101968 =       2.7747eV
 LUMO-HOMO         0.365945 =       9.9579eV

 Orbitals saved in record  2100.2


 **********************************************************************************************************************************
 DATASETS  * FILE   NREC   LENGTH (MB)   RECORD NAMES
              1      19      105.23       500      610      700      900      950      970     1000      129      960     1100   
                                          VAR    BASINP    GEOM    SYMINP    ZMAT    AOBASIS   BASIS     P2S    ABASIS      S 
                                         1400     1410     1200     1210     1080     1600     1650     1300     1700   
                                           T        V       H0       H01     AOSYM     SMH    MOLCAS    ERIS     OPER   

              2       4        0.63       700     1000      520     2100   
                                         GEOM     BASIS   MCVARS     RHF  

 PROGRAMS   *        TOTAL    HF-SCF       INT
 CPU TIMES  *         1.91      0.57      1.24
 REAL TIME  *         2.61 SEC
 DISK USED  *       331.14 MB
 **********************************************************************************************************************************


 PROGRAM * PAPT (Closed-shell)     Authors: C. Hampel, H.-J. Werner, 1991, P.J. Knowles, 2021


 CORETYPE=SMALL

 Convergence thresholds:  THRVAR = 1.00D-08  THRDEN = 1.00D-06

 Number of closed-shell orbitals:   9 (   7   2 )
 Number of external orbitals:     121 (  71  50 )

 Molecular orbitals read from record     2100.2  Type=RHF/CANONICAL  

 Number of N-1 electron functions:               9
 Number of N-2 electron functions:              45
 Number of singly external CSFs:               597
 Number of doubly external CSFs:            299781
 Total number of CSFs:                      300379

 Length of J-op  integral file:               0.00 MB
 Length of K-op  integral file:               0.67 MB

 Integral transformation finished. Total CPU:   0.09 sec, npass=  1  Memory used:   0.51 MW

 Reference energy:                    -95.14591874

                        CORR.ENERGY   TOTAL ENERGY   ENERGY CHANGE
 MP2:                   -0.43642633   -95.58234507    -0.43642633

 SCS-MP2 correlation energy:           -0.44192776   (PS=  1.200000  PT=  0.333333)
 SCS-MP2 total energy:                -95.58784650
 Iteration:   1     0.2464D+00
 Iteration:   2     0.2485D+01
 Iteration:   3     0.8820D-01
 Iteration:   4     0.1733D+00
 Iteration:   5     0.4805D-01
 Iteration:   6     0.3596D-01
 Iteration:   7     0.6336D-01
 Iteration:   8     0.1594D-01
 Iteration:   9     0.8396D-01
 Iteration:  10     0.6654D-02
 Iteration:  11     0.8440D-02
 Iteration:  12     0.2825D-02
 Iteration:  13     0.2106D-02
 Iteration:  14     0.2193D-02
 Iteration:  15     0.4092D-03
 Iteration:  16     0.9183D-03
 Iteration:  17     0.1548D-03
 Iteration:  18     0.1093D-03
 Iteration:  19     0.1291D-03
 Iteration:  20     0.1925D-04
 PAPT operator written to  7000.1
 PAPT orbitals and eigenvalues written to  7000.2

 MP3(D):                -0.45952528   -95.60544402    -0.02309895



 RESULTS
 =======

  Reference energy                    -95.145918740022

  Correlated core orbitals:             1.1       2.1
  Orbital energies:                   -15.6603  -11.1556

  MP3 core-core energy                 -0.018297385748
  MP3 core-valence energy              -0.012759749562
  MP3 valence correlation energy       -0.428468149430

  MP3 singlet pair energy              -0.324040599015
  MP3 triplet pair energy              -0.135484685724
  MP3 correlation energy               -0.459525284739

 !MP3 total energy                    -95.605444024761

 Timing summary (sec):

 STEP                 CPU(USER)    SYS     CPU(TOT)    WALL
 Transformation          0.10      0.01      0.11      0.11
 CCSD iterations         2.94      0.08      3.02      1.03

 Program statistics:

 Available memory in ccsd:              3145727669
 Min. memory needed in ccsd:                875469
 Max. memory used in ccsd:                 1131497
 Max. memory used in cckext:               1175385 ( 1 integral passes)



 **********************************************************************************************************************************
 DATASETS  * FILE   NREC   LENGTH (MB)   RECORD NAMES
              1      21      109.84       500      610      700      900      950      970     1000      129      960     1100   
                                          VAR    BASINP    GEOM    SYMINP    ZMAT    AOBASIS   BASIS     P2S    ABASIS      S 
                                         1400     1410     1200     1210     1080     1600     1650     1300     1700     1380   
                                           T        V       H0       H01     AOSYM     SMH    MOLCAS    ERIS     OPER     JKOP   
                                         7000   
                                        PAPT AO    

              2       5        0.93       700     1000      520     2100     7000   
                                         GEOM     BASIS   MCVARS     RHF     PAPT   

 PROGRAMS   *        TOTAL      PAPT    HF-SCF       INT
 CPU TIMES  *         2.96      1.06      0.57      1.24
 REAL TIME  *         3.78 SEC
 DISK USED  *       331.14 MB
 **********************************************************************************************************************************


 PROGRAM * MP4 (Closed-shell)     Authors: C. Hampel, H.-J. Werner, 1991, M. Deegan, P.J. Knowles, 1992


 CORETYPE=SMALL

 Convergence thresholds:  THRVAR = 1.00D-08  THRDEN = 1.00D-06

 MP4(T)     terms to be evaluated (factor= 0.000)


 Number of closed-shell orbitals:   9 (   7   2 )
 Number of external orbitals:     121 (  71  50 )

 Molecular orbitals read from record     7000.2  Type=PAPT/CANONICAL (state 1.1)

 Number of N-1 electron functions:               9
 Number of N-2 electron functions:              45
 Number of singly external CSFs:               597
 Number of doubly external CSFs:            299781
 Total number of CSFs:                      300379

 Length of J-op  integral file:               0.00 MB
 Length of K-op  integral file:               0.67 MB

 Memory could be reduced to 10.76 Mwords without degradation in triples

 Integral transformation finished. Total CPU:   0.21 sec, npass=  1  Memory used:   3.94 MW
 Orbital energies read from record       7000.2  Type=PAPT/CANONICAL (state 1.1)

 Reference energy:                    -95.14591874

                        CORR.ENERGY   TOTAL ENERGY   ENERGY CHANGE
 MP2:                   -0.46420882   -95.61012756    -0.46420882

 SCS-MP2 correlation energy:           -0.47183748   (PS=  1.200000  PT=  0.333333)
 SCS-MP2 total energy:                -95.61775622

 MP3(D):                -0.46442728   -95.61034602    -0.00021846
 MP4(DQ):               -0.45899644   -95.60491518     0.00543085
 MP4(SDQ):              -0.46160160   -95.60752034    -0.00260516

 Norm of t1 vector:      0.03982980      S-energy:    -0.00260516      T1 diagnostic:  0.00663830

 Largest off-diagonal element in interal  block of Fock matrix:  0.12D+00
 Largest off-diagonal element in external block of Fock matrix:  0.31D+00


 Total CPU time for triples:      3.07 sec


 RESULTS
 =======

  Reference energy                    -95.145918740022

  Correlated core orbitals:             1.1       2.1
  Orbital energies:                   -15.0264  -10.6144

  MP4(SDQ) core-core energy            -0.018448529252
  MP4(SDQ) core-valence energy         -0.012722674022
  MP4(SDQ) valence correlation ener    -0.430430393220

  MP4(SDQ) singlet pair energy         -0.324961087763
  MP4(SDQ) triplet pair energy         -0.134035351030
  MP4(SDQ) correlation energy          -0.461601596494

  Triples contribution                 -0.018071790205
  Total correlation energy             -0.479673386699

  MP4(SDQ) total energy               -95.607520336516
 !MP4(SDTQ) total energy              -95.625592126721

 Timing summary (sec):

 STEP                 CPU(USER)    SYS     CPU(TOT)    WALL
 Transformation          0.32      0.04      0.36      0.38
 CCSD iterations         3.67      0.04      3.71      0.64
 Triples                 3.07      0.15      3.22      3.24

 Program statistics:

 Available memory in ccsd:              3145727669
 Min. memory needed in ccsd:                875469
 Max. memory used in ccsd:                 1131497
 Max. memory used in cckext:               1175385 ( 1 integral passes)



 **********************************************************************************************************************************
 DATASETS  * FILE   NREC   LENGTH (MB)   RECORD NAMES
              1      22      140.61       500      610      700      900      950      970     1000      129      960     1100   
                                          VAR    BASINP    GEOM    SYMINP    ZMAT    AOBASIS   BASIS     P2S    ABASIS      S 
                                         1400     1410     1200     1210     1080     1600     1650     1300     1700     1380   
                                           T        V       H0       H01     AOSYM     SMH    MOLCAS    ERIS     OPER     JKOP   
                                         7000     1380(1)
                                        PAPT AO   JKOP   

              2       5        0.93       700     1000      520     2100     7000   
                                         GEOM     BASIS   MCVARS     RHF     PAPT   

 PROGRAMS   *        TOTAL       MP4      PAPT    HF-SCF       INT
 CPU TIMES  *         6.98      4.02      1.06      0.57      1.24
 REAL TIME  *         8.07 SEC
 DISK USED  *       331.14 MB
 **********************************************************************************************************************************

 Dump information in style XML to xml output                                                                      

 Orbitals will not be exported.

 **********************************************************************************************************************************

 MP4/cc-pVTZ energy=    -95.625592126721

             MP4            PAPT          HF-SCF
    -95.62559213    -95.60544402    -95.14591874
 **********************************************************************************************************************************
 Molpro calculation terminated
