
 Working directory              : /var/folders/2v/xbgp75_9785319ghcgb4zr4r0000gr/T//molpro.clbCds9O8v/
 Global scratch directory       : /var/folders/2v/xbgp75_9785319ghcgb4zr4r0000gr/T//molpro.clbCds9O8v/
 Wavefunction directory         : /Users/peterk/wfu/
 Main file repository           : /var/folders/2v/xbgp75_9785319ghcgb4zr4r0000gr/T//molpro.clbCds9O8v/

 id        : peterk

 Nodes        nprocs
 pjk2022.local    1
 GA implementation: MPI file
 GA implementation (serial work in mppx): MPI file

 Using customized tuning parameters: mindgm=1; mindgv=20; mindgc=4; mindgr=1; noblas=0; minvec=7
 default implementation of scratch files=df  


 Variables initialized (1037), CPU time= 0.00 sec
 
 
 
 geometry={
 6
  O     0.1640874    1.0771522    0.0000000
  C     0.1319097   -0.3310036    0.0000000
  H     1.1612146   -0.6758875    0.0000000
  H    -0.3605642   -0.7355506    0.8858582
  H    -0.3605642   -0.7355506   -0.8858582
  H    -0.7360833    1.4008402    0.0000000
 }
 basis=cc-pVTZ
 core,small
 
 
 hf; ccsd(t)
 
 
 
 {put,xml;noorbitals,nobasis}
 Commands initialized (841), CPU time= 0.01 sec, 716 directives.
 Default parameters read. Elapsed time= 0.06 sec

 Checking input...
 Passed
1


                                         ***  PROGRAM SYSTEM MOLPRO  ***
                                       Copyright, TTI GmbH Stuttgart, 2015
                                    Version 2023.1 linked Sat Jul 22 07:59:25 2023


 **********************************************************************************************************************************
 LABEL *                                                                                                                                                                 
  64 bit serial version                                                                  DATE: 02-Aug-23          TIME: 12:41:02  
 **********************************************************************************************************************************

 SHA1:             401d111a1dbfa49388eacdf0424f85138b2d30d0
 **********************************************************************************************************************************

 Memory per process:      3146 MW
 Total memory per node:   4194 MW
 Total GA space:          1049 MW

 GA preallocation disabled
 GA check enabled

 Geometry recognized as XYZ


 Variable memory set to 3145.7 MW

 SETTING BASIS          =    CC-PVTZ


 Recomputing integrals since basis changed


 Using spherical harmonics

 Library entry O      S cc-pVTZ              selected for orbital group  1
 Library entry O      P cc-pVTZ              selected for orbital group  1
 Library entry O      D cc-pVTZ              selected for orbital group  1
 Library entry O      F cc-pVTZ              selected for orbital group  1
 Library entry C      S cc-pVTZ              selected for orbital group  2
 Library entry C      P cc-pVTZ              selected for orbital group  2
 Library entry C      D cc-pVTZ              selected for orbital group  2
 Library entry C      F cc-pVTZ              selected for orbital group  2
 Library entry H      S cc-pVTZ              selected for orbital group  3
 Library entry H      P cc-pVTZ              selected for orbital group  3
 Library entry H      D cc-pVTZ              selected for orbital group  3


 PROGRAM * SEWARD (Integral evaluation for generally contracted gaussian basis sets)     Author: Roland Lindh, 1990

 Geometry written to block  1 of record 700


 Point group  Cs  



 ATOMIC COORDINATES

 NR  ATOM    CHARGE       X              Y              Z

   1  O       8.00    0.310080247    2.035522653    0.000000000
   2  C       6.00    0.249273206   -0.625506150    0.000000000
   3  H       1.00    2.194377566   -1.277242266    0.000000000
   4  H       1.00   -0.681367588   -1.389989185    1.674029383
   5  H       1.00   -0.681367588   -1.389989185   -1.674029383
   6  H       1.00   -1.390995842    2.647204322    0.000000000

 Bond lengths in Bohr (Angstrom)

 1-2  2.661723462  1-6  1.807709690  2-3  2.051387563  2-4  2.062256282  2-5  2.062256282
     ( 1.408523398)     ( 0.956598772)     ( 1.085547549)     ( 1.091299028)     ( 1.091299028)

 Bond angles

  1-2-3  107.21515527   1-2-4  112.39036072   1-2-5  112.39036072   2-1-6  108.46879529

  3-2-4  108.06637220   3-2-5  108.06637220   4-2-5  108.53384977

 NUCLEAR CHARGE:                   18
 NUMBER OF PRIMITIVE AOS:         162
 NUMBER OF SYMMETRY AOS:          148
 NUMBER OF CONTRACTIONS:          116   (   74A'  +   42A"  )
 NUMBER OF INNER CORE ORBITALS:     0   (    0A'  +    0A"  )
 NUMBER OF OUTER CORE ORBITALS:     2   (    2A'  +    0A"  )
 NUMBER OF VALENCE ORBITALS:       12   (    9A'  +    3A"  )


 NUCLEAR REPULSION ENERGY   40.54140040

 Eigenvalues of metric

         1 0.132E-02 0.178E-02 0.231E-02 0.327E-02 0.452E-02 0.718E-02 0.985E-02 0.103E-01
         2 0.189E-02 0.105E-01 0.215E-01 0.318E-01 0.372E-01 0.473E-01 0.759E-01 0.958E-01


 Contracted 2-electron integrals neglected if value below      1.0D-11
 AO integral compression algorithm  1   Integral accuracy      1.0D-11

     60.031 MB (compressed) written to integral file ( 53.6%)


 NUMBER OF SORTED TWO-ELECTRON INTEGRALS:   11777331.     BUFFER LENGTH:  32768
 NUMBER OF SEGMENTS:   1  SEGMENT LENGTH:   11777331      RECORD LENGTH: 524288

 Memory used in sort:      12.33 MW

 SORT1 READ    13984354. AND WROTE    11637287. INTEGRALS IN     34 RECORDS. CPU TIME:     0.09 SEC, REAL TIME:     0.16 SEC
 SORT2 READ    11637287. AND WROTE    11777331. INTEGRALS IN    229 RECORDS. CPU TIME:     0.13 SEC, REAL TIME:     0.17 SEC

 FILE SIZES:   FILE 1:    90.5 MBYTE,  FILE 4:   142.7 MBYTE,   TOTAL:    233.1 MBYTE

 OPERATOR DM      FOR CENTER  0  COORDINATES:    0.000000    0.000000    0.000000


 **********************************************************************************************************************************
 DATASETS  * FILE   NREC   LENGTH (MB)   RECORD NAMES
              1      19       77.84       500      610      700      900      950      970     1000      129      960     1100   
                                          VAR    BASINP    GEOM    SYMINP    ZMAT    AOBASIS   BASIS     P2S    ABASIS      S 
                                         1400     1410     1200     1210     1080     1600     1650     1300     1700   
                                           T        V       H0       H01     AOSYM     SMH    MOLCAS    ERIS     OPER   

 PROGRAMS   *        TOTAL       INT
 CPU TIMES  *         1.06      0.97
 REAL TIME  *         2.08 SEC
 DISK USED  *       222.77 MB
 **********************************************************************************************************************************


 Program * Restricted Hartree-Fock

 Orbital guess generated from atomic densities. Full valence occupancy:   11   3

 Initial occupancy:   7   2

 NELEC=   18   SYM=1   MS2= 0   THRE=1.0D-08   THRD=3.2D-06   THRG=3.2D-06  HFMA2=F  DIIS_START=2   DIIS_MAX=10   DIIS_INCORE=F

 Level shifts:    0.00 (CLOSED)    0.00 (OPEN)    0.30 (GAP_MIN)

 ITER           ETOT              DE          GRAD        DDIFF     DIIS  NEXP   TIME(IT)  TIME(TOT)  DIAG
   1     -115.05400219    -115.05400219     0.00D+00     0.96D-01     0     0       0.03      0.06    start
   2     -115.08227358      -0.02827139     0.83D-02     0.11D-01     1     0       0.04      0.10    diag
   3     -115.08914395      -0.00687037     0.44D-02     0.34D-02     2     0       0.03      0.13    diag
   4     -115.08964699      -0.00050304     0.87D-03     0.94D-03     3     0       0.04      0.17    diag
   5     -115.08967709      -0.00003010     0.17D-03     0.25D-03     4     0       0.03      0.20    diag
   6     -115.08967840      -0.00000131     0.32D-04     0.65D-04     5     0       0.04      0.24    diag
   7     -115.08967846      -0.00000005     0.69D-05     0.12D-04     6     0       0.03      0.27    diag
   8     -115.08967846      -0.00000000     0.22D-05     0.34D-05     7     0       0.04      0.31    fixocc
   9     -115.08967846      -0.00000000     0.57D-06     0.11D-05     8     0       0.04      0.35    diag
  10     -115.08967846      -0.00000000     0.11D-06     0.17D-06     0     0       0.03      0.38    diag/orth

 Final occupancy:   7   2

 !RHF STATE 1.1 Energy               -115.089678461738
  RHF One-electron energy            -237.351562013576
  RHF Two-electron energy              81.720483151423
  RHF Kinetic energy                  114.983593228024
  RHF Nuclear energy                   40.541400400415
  RHF Virial quotient                  -1.000922611920

 !RHF STATE 1.1 Dipole moment          -0.57396152    -0.38134562     0.00000000
 Dipole moment /Debye                  -1.45886468    -0.96928387     0.00000000

 Orbital energies:

           1.1          2.1          3.1          4.1          5.1          6.1          7.1          8.1          9.1
    -20.551820   -11.267259    -1.358375    -0.924436    -0.691291    -0.594039    -0.500392     0.138760     0.178709

           1.2          2.2          3.2          4.2
     -0.619690    -0.447998     0.221070     0.404403


 HOMO      2.2    -0.447998 =     -12.1907eV
 LUMO      8.1     0.138760 =       3.7758eV
 LUMO-HOMO         0.586758 =      15.9665eV

 Orbitals saved in record  2100.2


 **********************************************************************************************************************************
 DATASETS  * FILE   NREC   LENGTH (MB)   RECORD NAMES
              1      19       77.84       500      610      700      900      950      970     1000      129      960     1100   
                                          VAR    BASINP    GEOM    SYMINP    ZMAT    AOBASIS   BASIS     P2S    ABASIS      S 
                                         1400     1410     1200     1210     1080     1600     1650     1300     1700   
                                           T        V       H0       H01     AOSYM     SMH    MOLCAS    ERIS     OPER   

              2       4        0.58       700     1000      520     2100   
                                         GEOM     BASIS   MCVARS     RHF  

 PROGRAMS   *        TOTAL    HF-SCF       INT
 CPU TIMES  *         1.44      0.38      0.97
 REAL TIME  *         2.66 SEC
 DISK USED  *       222.77 MB
 **********************************************************************************************************************************


 PROGRAM * CCSD (Closed-shell coupled cluster)     Authors: C. Hampel, H.-J. Werner, 1991, M. Deegan, P.J. Knowles, 1992


 CORETYPE=SMALL

 Convergence thresholds:  THRVAR = 1.00D-08  THRDEN = 1.00D-06

 CCSD(T)     terms to be evaluated (factor= 1.000)


 Number of closed-shell orbitals:   9 (   7   2 )
 Number of external orbitals:     107 (  67  40 )

 Molecular orbitals read from record     2100.2  Type=RHF/CANONICAL  

 Number of N-1 electron functions:               9
 Number of N-2 electron functions:              45
 Number of singly external CSFs:               549
 Number of doubly external CSFs:            236880
 Total number of CSFs:                      237430

 Length of J-op  integral file:               0.00 MB
 Length of K-op  integral file:               0.56 MB
 Length of 3-ext integral record:             0.00 MB

 Memory could be reduced to 7.79 Mwords without degradation in triples

 Integral transformation finished. Total CPU:   0.17 sec, npass=  1  Memory used:   2.66 MW

 Reference energy:                   -115.08967846

 MP2 singlet pair energy:              -0.30182657
 MP2 triplet pair energy:              -0.15530218
 MP2 correlation energy:               -0.45712875
 MP2 total energy:                   -115.54680721

 SCS-MP2 correlation energy:           -0.45882435   (PS=  1.200000  PT=  0.333333)
 SCS-MP2 total energy:               -115.54850281

 ITER.      SQ.NORM     CORR.ENERGY   TOTAL ENERGY   ENERGY CHANGE        DEN1      VAR(S)    VAR(P)  DIIS     TIME  TIME/IT
   1      1.11792841    -0.47485089  -115.56452935    -0.01772214    -0.00731482  0.12D-02  0.18D-02  1  1     2.00     0.37
   2      1.12561498    -0.47599834  -115.56567680    -0.00114745    -0.00947437  0.16D-04  0.21D-03  2  2     2.29     0.43
   3      1.12808967    -0.47607327  -115.56575173    -0.00007492    -0.00171524  0.78D-05  0.11D-04  3  3     2.52     0.41
   4      1.12877333    -0.47606567  -115.56574413     0.00000759    -0.00038997  0.33D-06  0.81D-06  4  4     2.74     0.39
   5      1.12887499    -0.47606800  -115.56574647    -0.00000233    -0.00003790  0.98D-07  0.65D-07  5  5     2.97     0.38
   6      1.12889721    -0.47606667  -115.56574513     0.00000134    -0.00000463  0.16D-07  0.48D-08  6  6     3.23     0.38
   7      1.12890069    -0.47606648  -115.56574494     0.00000018    -0.00000074  0.25D-08  0.83D-09  6  2     3.46     0.38
   8      1.12890195    -0.47606637  -115.56574483     0.00000011    -0.00000009  0.40D-09  0.94D-10  6  1     3.69     0.38

 Norm of t1 vector:      0.04462402      S-energy:    -0.00000011      T1 diagnostic:  0.00743734
                                                                       D1 diagnostic:  0.01691292
                                                                       D2 diagnostic:  0.13589713 (internal)


 Total CPU time for triples:      2.59 sec


 RESULTS
 =======

  Reference energy                   -115.089678461738

  Correlated core orbitals:             1.1       2.1
  Orbital energies:                   -20.5518  -11.2673

  CCSD core-core energy                -0.017147227742
  CCSD core-valence energy             -0.013464360440
  CCSD valence correlation energy      -0.445454783658

  CCSD singlet pair energy             -0.334262713168
  CCSD triplet pair energy             -0.141803547855
  CCSD correlation energy              -0.476066371840

  Triples (T) contribution             -0.014984004933
  Total correlation energy             -0.491050376773

  CCSD total energy                  -115.565744833578
  CCSD[T] energy                     -115.581191603568
  CCSD-T energy                      -115.580469355910
 !CCSD(T) total energy               -115.580728838511

 Timing summary (sec):

 STEP                 CPU(USER)    SYS     CPU(TOT)    WALL
 Transformation          0.18      0.05      0.23      0.25
 CCSD iterations         3.53      0.49      4.02      3.04
 Triples                 2.59      0.52      3.11      3.84

 Program statistics:

 Available memory in ccsd:              3145727669
 Min. memory needed in ccsd:                701107
 Max. memory used in ccsd:                  902343
 Max. memory used in cckext:                931835 ( 8 integral passes)



 **********************************************************************************************************************************
 DATASETS  * FILE   NREC   LENGTH (MB)   RECORD NAMES
              1      20      102.98       500      610      700      900      950      970     1000      129      960     1100   
                                          VAR    BASINP    GEOM    SYMINP    ZMAT    AOBASIS   BASIS     P2S    ABASIS      S 
                                         1400     1410     1200     1210     1080     1600     1650     1300     1700     1380   
                                           T        V       H0       H01     AOSYM     SMH    MOLCAS    ERIS     OPER     JKOP   

              2       4        0.58       700     1000      520     2100   
                                         GEOM     BASIS   MCVARS     RHF  

 PROGRAMS   *        TOTAL   CCSD(T)    HF-SCF       INT
 CPU TIMES  *         6.20      4.75      0.38      0.97
 REAL TIME  *         9.85 SEC
 DISK USED  *       222.77 MB
 **********************************************************************************************************************************

 Dump information in style XML to xml output                                                                      

 Orbitals will not be exported.

 **********************************************************************************************************************************

 CCSD(T)/cc-pVTZ energy=   -115.580728838511

         CCSD(T)          HF-SCF
   -115.58072884   -115.08967846
 **********************************************************************************************************************************
 Molpro calculation terminated
