
 Working directory              : /var/folders/2v/xbgp75_9785319ghcgb4zr4r0000gr/T//molpro.yaRxZ3GLUk/
 Global scratch directory       : /var/folders/2v/xbgp75_9785319ghcgb4zr4r0000gr/T//molpro.yaRxZ3GLUk/
 Wavefunction directory         : /Users/peterk/wfu/
 Main file repository           : /var/folders/2v/xbgp75_9785319ghcgb4zr4r0000gr/T//molpro.yaRxZ3GLUk/

 id        : peterk

 Nodes        nprocs
 pjk2022.local    1
 GA implementation: MPI file
 GA implementation (serial work in mppx): MPI file

 Using customized tuning parameters: mindgm=1; mindgv=20; mindgc=4; mindgr=1; noblas=0; minvec=7
 default implementation of scratch files=df  


 Variables initialized (1037), CPU time= 0.00 sec
 
 
 
 geometry={
 10
  C     0.0240053    0.7372345   -0.4077909
  C    -0.0240053   -0.7372345   -0.4077909
  C     0.8896528    1.4589341    0.2837537
  H    -0.7007229    1.2440229   -1.0342574
  H     0.8809846    2.5367250    0.2414324
  H     1.6311062    0.9968323    0.9184411
  C    -0.8896528   -1.4589341    0.2837537
  H     0.7007229   -1.2440229   -1.0342574
  H    -1.6311062   -0.9968323    0.9184411
  H    -0.8809846   -2.5367250    0.2414324
 }
 basis=cc-pVDZ
 core,small
 
 
 hf; papt;mp2
 
 
 
 {put,xml;noorbitals,nobasis}
 Commands initialized (841), CPU time= 0.00 sec, 716 directives.
 Default parameters read. Elapsed time= 0.06 sec

 Checking input...
 Passed
1


                                         ***  PROGRAM SYSTEM MOLPRO  ***
                                       Copyright, TTI GmbH Stuttgart, 2015
                                    Version 2023.1 linked Sat Jul 22 07:59:25 2023


 **********************************************************************************************************************************
 LABEL *                                                                                                                                                                 
  64 bit serial version                                                                  DATE: 01-Aug-23          TIME: 21:47:18  
 **********************************************************************************************************************************

 SHA1:             401d111a1dbfa49388eacdf0424f85138b2d30d0
 **********************************************************************************************************************************

 Memory per process:      3146 MW
 Total memory per node:   4194 MW
 Total GA space:          1049 MW

 GA preallocation disabled
 GA check enabled

 Geometry recognized as XYZ


 Variable memory set to 3145.7 MW

 SETTING BASIS          =    CC-PVDZ


 Recomputing integrals since basis changed


 Using spherical harmonics

 Library entry C      S cc-pVDZ              selected for orbital group  1
 Library entry C      P cc-pVDZ              selected for orbital group  1
 Library entry C      D cc-pVDZ              selected for orbital group  1
 Library entry H      S cc-pVDZ              selected for orbital group  2
 Library entry H      P cc-pVDZ              selected for orbital group  2


 PROGRAM * SEWARD (Integral evaluation for generally contracted gaussian basis sets)     Author: Roland Lindh, 1990

 Geometry written to block  1 of record 700


 Point group  C2  



 ATOMIC COORDINATES

 NR  ATOM    CHARGE       X              Y              Z

   1  C       6.00    0.045363443    1.393171295   -0.770613117
   2  C       6.00   -0.045363443   -1.393171295   -0.770613117
   3  C       6.00    1.681200138    2.756985883    0.536216780
   4  C       6.00   -1.681200138   -2.756985883    0.536216780
   5  H       1.00   -1.324174370    2.350862574   -1.954463228
   6  H       1.00    1.324174370   -2.350862574   -1.954463228
   7  H       1.00    1.664819614    4.793715503    0.456241114
   8  H       1.00   -1.664819614   -4.793715503    0.456241114
   9  H       1.00    3.082343998    1.883740039    1.735602141
  10  H       1.00   -3.082343998   -1.883740039    1.735602141

 Bond lengths in Bohr (Angstrom)

 1-2  2.787819290  1-3  2.498750949  1-5  2.048000853  2-4  2.498750949  2-6  2.048000853
     ( 1.475250436)     ( 1.322282058)     ( 1.083755379)     ( 1.322282058)     ( 1.083755379)

  3- 7  2.038365025   3- 9  2.040658635   4- 8  2.038365025   4-10  2.040658635
       ( 1.078656319)       ( 1.079870045)       ( 1.078656319)       ( 1.079870045)

 Bond angles

  1-2-4  124.52840619   1-2-6  116.46249949   1-3-7  121.30407936   1-3-9  121.55561025

  2- 1- 3  124.52840619   2- 1- 5  116.46249949   2- 4- 8  121.30407936   2- 4-10  121.55561025

  3- 1- 5  119.00424334   4- 2- 6  119.00424334   7- 3- 9  117.13947750   8- 4-10  117.13947750

 NUCLEAR CHARGE:                   30
 NUMBER OF PRIMITIVE AOS:         150
 NUMBER OF SYMMETRY AOS:          146
 NUMBER OF CONTRACTIONS:           86   (   43A   +   43B   )
 NUMBER OF INNER CORE ORBITALS:     0   (    0A   +    0B   )
 NUMBER OF OUTER CORE ORBITALS:     4   (    2A   +    2B   )
 NUMBER OF VALENCE ORBITALS:       22   (   11A   +   11B   )


 NUCLEAR REPULSION ENERGY  104.44644798

 Eigenvalues of metric

         1 0.264E-02 0.128E-01 0.179E-01 0.255E-01 0.320E-01 0.378E-01 0.443E-01 0.571E-01
         2 0.252E-02 0.419E-02 0.165E-01 0.237E-01 0.285E-01 0.376E-01 0.449E-01 0.480E-01


 Contracted 2-electron integrals neglected if value below      1.0D-11
 AO integral compression algorithm  1   Integral accuracy      1.0D-11

     19.923 MB (compressed) written to integral file ( 54.8%)


 NUMBER OF SORTED TWO-ELECTRON INTEGRALS:    3580610.     BUFFER LENGTH:  32768
 NUMBER OF SEGMENTS:   1  SEGMENT LENGTH:    3580610      RECORD LENGTH: 524288

 Memory used in sort:       4.14 MW

 SORT1 READ     4526704. AND WROTE     3537941. INTEGRALS IN     11 RECORDS. CPU TIME:     0.03 SEC, REAL TIME:     0.03 SEC
 SORT2 READ     3537941. AND WROTE     3580610. INTEGRALS IN     76 RECORDS. CPU TIME:     0.05 SEC, REAL TIME:     0.08 SEC

 FILE SIZES:   FILE 1:    50.3 MBYTE,  FILE 4:    46.2 MBYTE,   TOTAL:     96.5 MBYTE

 OPERATOR DM      FOR CENTER  0  COORDINATES:    0.000000    0.000000    0.000000


 **********************************************************************************************************************************
 DATASETS  * FILE   NREC   LENGTH (MB)   RECORD NAMES
              1      19       44.14       500      610      700      900      950      970     1000      129      960     1100   
                                          VAR    BASINP    GEOM    SYMINP    ZMAT    AOBASIS   BASIS     P2S    ABASIS      S 
                                         1400     1410     1200     1210     1080     1600     1650     1300     1700   
                                           T        V       H0       H01     AOSYM     SMH    MOLCAS    ERIS     OPER   

 PROGRAMS   *        TOTAL       INT
 CPU TIMES  *         0.64      0.55
 REAL TIME  *         1.16 SEC
 DISK USED  *        92.48 MB
 **********************************************************************************************************************************


 Program * Restricted Hartree-Fock

 Orbital guess generated from atomic densities. Full valence occupancy:   13  13

 Initial occupancy:   8   7

 NELEC=   30   SYM=1   MS2= 0   THRE=1.0D-08   THRD=3.2D-06   THRG=3.2D-06  HFMA2=F  DIIS_START=2   DIIS_MAX=10   DIIS_INCORE=F

 Level shifts:    0.00 (CLOSED)    0.00 (OPEN)    0.30 (GAP_MIN)

 ITER           ETOT              DE          GRAD        DDIFF     DIIS  NEXP   TIME(IT)  TIME(TOT)  DIAG
   1     -154.88079808    -154.88079808     0.00D+00     0.16D+00     0     0       0.01      0.02    start
   2     -154.92056417      -0.03976609     0.69D-02     0.15D-01     1     0       0.01      0.03    diag
   3     -154.92431936      -0.00375519     0.22D-02     0.48D-02     2     0       0.01      0.04    diag
   4     -154.92480051      -0.00048114     0.69D-03     0.18D-02     3     0       0.01      0.05    diag
   5     -154.92480872      -0.00000821     0.97D-04     0.26D-03     4     0       0.01      0.06    diag
   6     -154.92480998      -0.00000126     0.35D-04     0.71D-04     5     0       0.01      0.07    diag
   7     -154.92481020      -0.00000022     0.15D-04     0.32D-04     6     0       0.00      0.07    diag
   8     -154.92481023      -0.00000003     0.44D-05     0.15D-04     7     0       0.01      0.08    fixocc
   9     -154.92481023      -0.00000000     0.10D-05     0.34D-05     8     0       0.01      0.09    diag
  10     -154.92481023      -0.00000000     0.17D-06     0.50D-06     9     0       0.01      0.10    diag/orth
  11     -154.92481023      -0.00000000     0.32D-07     0.74D-07     0     0       0.01      0.11    diag

 Final occupancy:   8   7

 !RHF STATE 1.1 Energy               -154.924810230143
  RHF One-electron energy            -414.310612998871
  RHF Two-electron energy             154.939354785390
  RHF Kinetic energy                  154.837382394028
  RHF Nuclear energy                  104.446447983338
  RHF Virial quotient                  -1.000564642948

 !RHF STATE 1.1 Dipole moment           0.00000000     0.00000000    -0.03443550
 Dipole moment /Debye                   0.00000000     0.00000000    -0.08752630

 Orbital energies:

           1.1          2.1          3.1          4.1          5.1          6.1          7.1          8.1          9.1         10.1
    -11.238775   -11.229040    -1.089832    -0.827601    -0.646679    -0.588011    -0.483583    -0.380496     0.149614     0.216373

           1.2          2.2          3.2          4.2          5.2          6.2          7.2          8.2          9.2
    -11.238046   -11.229032    -1.001048    -0.738691    -0.623613    -0.541770    -0.359734     0.177121     0.229223


 HOMO      7.2    -0.359734 =      -9.7889eV
 LUMO      9.1     0.149614 =       4.0712eV
 LUMO-HOMO         0.509348 =      13.8601eV

 Orbitals saved in record  2100.2


 **********************************************************************************************************************************
 DATASETS  * FILE   NREC   LENGTH (MB)   RECORD NAMES
              1      19       44.14       500      610      700      900      950      970     1000      129      960     1100   
                                          VAR    BASINP    GEOM    SYMINP    ZMAT    AOBASIS   BASIS     P2S    ABASIS      S 
                                         1400     1410     1200     1210     1080     1600     1650     1300     1700   
                                           T        V       H0       H01     AOSYM     SMH    MOLCAS    ERIS     OPER   

              2       4        0.59       700     1000      520     2100   
                                         GEOM     BASIS   MCVARS     RHF  

 PROGRAMS   *        TOTAL    HF-SCF       INT
 CPU TIMES  *         0.75      0.11      0.55
 REAL TIME  *         1.31 SEC
 DISK USED  *        92.48 MB
 **********************************************************************************************************************************


 PROGRAM * PAPT (Closed-shell)     Authors: C. Hampel, H.-J. Werner, 1991, P.J. Knowles, 2021


 CORETYPE=SMALL

 Convergence thresholds:  THRVAR = 1.00D-08  THRDEN = 1.00D-06

 Number of closed-shell orbitals:  15 (   8   7 )
 Number of external orbitals:      71 (  35  36 )

 Molecular orbitals read from record     2100.2  Type=RHF/CANONICAL  

 Number of N-1 electron functions:              15
 Number of N-2 electron functions:             120
 Number of singly external CSFs:               532
 Number of doubly external CSFs:            284089
 Total number of CSFs:                      284622

 Length of J-op  integral file:               0.00 MB
 Length of K-op  integral file:               0.32 MB

 Integral transformation finished. Total CPU:   0.03 sec, npass=  1  Memory used:   0.60 MW

 Reference energy:                   -154.92481023

                        CORR.ENERGY   TOTAL ENERGY   ENERGY CHANGE
 MP2:                   -0.54201699  -155.46682722    -0.54201699

 SCS-MP2 correlation energy:           -0.53931752   (PS=  1.200000  PT=  0.333333)
 SCS-MP2 total energy:               -155.46412775
 Iteration:   1     0.2612D+00
 Iteration:   2     0.5819D+00
 Iteration:   3     0.1320D+00
 Iteration:   4     0.2165D+00
 Iteration:   5     0.4333D-01
 Iteration:   6     0.1504D+01
 Iteration:   7     0.1322D-01
 Iteration:   8     0.9655D-02
 Iteration:   9     0.8819D-02
 Iteration:  10     0.2100D-02
 Iteration:  11     0.3456D-02
 Iteration:  12     0.8009D-03
 Iteration:  13     0.1008D-01
 Iteration:  14     0.2958D-03
 Iteration:  15     0.3147D-03
 Iteration:  16     0.1629D-03
 Iteration:  17     0.4994D-04
 PAPT operator written to  7000.1
 PAPT orbitals and eigenvalues written to  7000.2

 MP3(D):                -0.58163115  -155.50644138    -0.03961416



 RESULTS
 =======

  Reference energy                   -154.924810230143

  Correlated core orbitals:             1.1       2.1       1.2       2.2
  Orbital energies:                   -11.2388  -11.2290  -11.2380  -11.2290

  MP3 core-core energy                 -0.002723143976
  MP3 core-valence energy              -0.007492118786
  MP3 valence correlation energy       -0.571415887298

  MP3 singlet pair energy              -0.398145527446
  MP3 triplet pair energy              -0.183485622614
  MP3 correlation energy               -0.581631150060

 !MP3 total energy                   -155.506441380203

 Timing summary (sec):

 STEP                 CPU(USER)    SYS     CPU(TOT)    WALL
 Transformation          0.03      0.01      0.04      0.04
 CCSD iterations         1.41      0.01      1.42      0.58

 Program statistics:

 Available memory in ccsd:              3145727092
 Min. memory needed in ccsd:                782123
 Max. memory used in ccsd:                 1029649
 Max. memory used in cckext:               1025320 ( 1 integral passes)



 **********************************************************************************************************************************
 DATASETS  * FILE   NREC   LENGTH (MB)   RECORD NAMES
              1      21       49.31       500      610      700      900      950      970     1000      129      960     1100   
                                          VAR    BASINP    GEOM    SYMINP    ZMAT    AOBASIS   BASIS     P2S    ABASIS      S 
                                         1400     1410     1200     1210     1080     1600     1650     1300     1700     1380   
                                           T        V       H0       H01     AOSYM     SMH    MOLCAS    ERIS     OPER     JKOP   
                                         7000   
                                        PAPT AO    

              2       5        0.78       700     1000      520     2100     7000   
                                         GEOM     BASIS   MCVARS     RHF     PAPT   

 PROGRAMS   *        TOTAL      PAPT    HF-SCF       INT
 CPU TIMES  *         1.36      0.61      0.11      0.55
 REAL TIME  *         1.95 SEC
 DISK USED  *        92.48 MB
 **********************************************************************************************************************************


 PROGRAM * MP2 (Closed-shell)     Authors: C. Hampel, H.-J. Werner, 1991, M. Deegan, P.J. Knowles, 1992


 CORETYPE=SMALL

 Convergence thresholds:  THRVAR = 1.00D-08  THRDEN = 1.00D-06

 Number of closed-shell orbitals:  15 (   8   7 )
 Number of external orbitals:      71 (  35  36 )

 Molecular orbitals read from record     7000.2  Type=PAPT/CANONICAL (state 1.1)

 Number of N-1 electron functions:              15
 Number of N-2 electron functions:             120
 Number of singly external CSFs:               532
 Number of doubly external CSFs:            284089
 Total number of CSFs:                      284622

 Length of J-op  integral file:               0.00 MB
 Length of K-op  integral file:               0.32 MB

 Integral transformation finished. Total CPU:   0.04 sec, npass=  1  Memory used:   0.60 MW
 Orbital energies read from record       7000.2  Type=PAPT/CANONICAL (state 1.1)

 Memory needed for MP2:                      0.02 MW

 SCS-MP2 correlation energy:           -0.590851657709   (PS=  1.200000  PT=  0.333333)
 SCS-MP2 total energy:               -155.515661887852


  Reference energy                   -154.924810230143

  Correlated core orbitals:             1.1       2.1       1.2       2.2
  Orbital energies:                   -11.5100  -11.3931  -11.4848  -11.3814

  MP2 core-core energy                 -0.002749938000
  MP2 core-valence energy              -0.007362640593
  MP2 valence correlation energy       -0.579397818682

  MP2 singlet pair energy              -0.387770518200
  MP2 triplet pair energy              -0.201739879075
  MP2 correlation energy               -0.589510397275

 !MP2 total energy                   -155.514320627418


 **********************************************************************************************************************************
 DATASETS  * FILE   NREC   LENGTH (MB)   RECORD NAMES
              1      21       49.31       500      610      700      900      950      970     1000      129      960     1100   
                                          VAR    BASINP    GEOM    SYMINP    ZMAT    AOBASIS   BASIS     P2S    ABASIS      S 
                                         1400     1410     1200     1210     1080     1600     1650     1300     1700     1380   
                                           T        V       H0       H01     AOSYM     SMH    MOLCAS    ERIS     OPER     JKOP   
                                         7000   
                                        PAPT AO    

              2       5        0.78       700     1000      520     2100     7000   
                                         GEOM     BASIS   MCVARS     RHF     PAPT   

 PROGRAMS   *        TOTAL       MP2      PAPT    HF-SCF       INT
 CPU TIMES  *         1.46      0.10      0.61      0.11      0.55
 REAL TIME  *         2.06 SEC
 DISK USED  *        92.48 MB
 **********************************************************************************************************************************

 Dump information in style XML to xml output                                                                      

 Orbitals will not be exported.

 **********************************************************************************************************************************

 MP2/cc-pVDZ energy=   -155.514320627418

             MP2            PAPT          HF-SCF
   -155.51432063   -155.50644138   -154.92481023
 **********************************************************************************************************************************
 Molpro calculation terminated
