
 Working directory              : /var/folders/2v/xbgp75_9785319ghcgb4zr4r0000gr/T//molpro.WV8L1l4G41/
 Global scratch directory       : /var/folders/2v/xbgp75_9785319ghcgb4zr4r0000gr/T//molpro.WV8L1l4G41/
 Wavefunction directory         : /Users/peterk/wfu/
 Main file repository           : /var/folders/2v/xbgp75_9785319ghcgb4zr4r0000gr/T//molpro.WV8L1l4G41/

 id        : peterk

 Nodes        nprocs
 pjk2022.local    1
 GA implementation: MPI file
 GA implementation (serial work in mppx): MPI file

 Using customized tuning parameters: mindgm=1; mindgv=20; mindgc=4; mindgr=1; noblas=0; minvec=7
 default implementation of scratch files=df  


 Variables initialized (1037), CPU time= 0.01 sec
 
 
 
 geometry={
 16
  C    -1.3656935   -1.3512634    0.0000000
  C    -2.7484086   -1.0224421    0.0000000
  C    -2.8156508    0.3249638    0.0000000
  O    -1.5751158    0.8611200    0.0000000
  C    -0.6954624   -0.1694461    0.0000000
  C     0.6954624    0.1694461    0.0000000
  O     1.5751158   -0.8611200    0.0000000
  C     2.8156508   -0.3249638    0.0000000
  C     2.7484086    1.0224421    0.0000000
  C     1.3656935    1.3512634    0.0000000
  H    -0.9206722   -2.3269899    0.0000000
  H    -3.5790533   -1.7013250    0.0000000
  H    -3.6279757    1.0236724    0.0000000
  H     3.6279757   -1.0236724    0.0000000
  H     3.5790533    1.7013250    0.0000000
  H     0.9206722    2.3269899    0.0000000
 }
 basis=cc-pVDZ
 core,small
 
 
 hf; papt;mp4
 
 
 
 {put,xml;noorbitals,nobasis}
 Commands initialized (841), CPU time= 0.00 sec, 716 directives.
 Default parameters read. Elapsed time= 0.06 sec

 Checking input...
 Passed
1


                                         ***  PROGRAM SYSTEM MOLPRO  ***
                                       Copyright, TTI GmbH Stuttgart, 2015
                                    Version 2023.1 linked Sat Jul 22 07:59:25 2023


 **********************************************************************************************************************************
 LABEL *                                                                                                                                                                 
  64 bit serial version                                                                  DATE: 01-Aug-23          TIME: 22:52:02  
 **********************************************************************************************************************************

 SHA1:             401d111a1dbfa49388eacdf0424f85138b2d30d0
 **********************************************************************************************************************************

 Memory per process:      3146 MW
 Total memory per node:   4194 MW
 Total GA space:          1049 MW

 GA preallocation disabled
 GA check enabled

 Geometry recognized as XYZ


 Variable memory set to 3145.7 MW

 SETTING BASIS          =    CC-PVDZ


 Recomputing integrals since basis changed


 Using spherical harmonics

 Library entry C      S cc-pVDZ              selected for orbital group  1
 Library entry C      P cc-pVDZ              selected for orbital group  1
 Library entry C      D cc-pVDZ              selected for orbital group  1
 Library entry O      S cc-pVDZ              selected for orbital group  2
 Library entry O      P cc-pVDZ              selected for orbital group  2
 Library entry O      D cc-pVDZ              selected for orbital group  2
 Library entry H      S cc-pVDZ              selected for orbital group  4
 Library entry H      P cc-pVDZ              selected for orbital group  4


 PROGRAM * SEWARD (Integral evaluation for generally contracted gaussian basis sets)     Author: Roland Lindh, 1990

 Geometry written to block  1 of record 700


 Point group  C2h 



 ATOMIC COORDINATES

 NR  ATOM    CHARGE       X              Y              Z

   1  C       6.00   -2.580786685   -2.553517748    0.000000000
   2  C       6.00    2.580786685    2.553517748    0.000000000
   3  C       6.00   -5.193739533   -1.932135547    0.000000000
   4  C       6.00    5.193739533    1.932135547    0.000000000
   5  C       6.00   -5.320808875    0.614092582    0.000000000
   6  C       6.00    5.320808875   -0.614092582    0.000000000
   7  O       8.00   -2.976537477    1.627280960    0.000000000
   8  O       8.00    2.976537477   -1.627280960    0.000000000
   9  C       6.00   -1.314233466   -0.320206722    0.000000000
  10  C       6.00    1.314233466    0.320206722    0.000000000
  11  H       1.00   -1.739818309   -4.397373606    0.000000000
  12  H       1.00    1.739818309    4.397373606    0.000000000
  13  H       1.00   -6.763430522   -3.215038299    0.000000000
  14  H       1.00    6.763430522    3.215038299    0.000000000
  15  H       1.00   -6.855880460    1.934460477    0.000000000
  16  H       1.00    6.855880460   -1.934460477    0.000000000

 Bond lengths in Bohr (Angstrom)

  1- 3  2.685821741   1- 9  2.567456951   1-11  2.026581416   2- 4  2.685821741   2-10  2.567456951
       ( 1.421275658)       ( 1.358639709)       ( 1.072420701)       ( 1.421275658)       ( 1.358639709)

  2-12  2.026581416   3- 5  2.549396851   3-13  2.027256588   4- 6  2.549396851   4-14  2.027256588
       ( 1.072420701)       ( 1.349082715)       ( 1.072777987)       ( 1.349082715)       ( 1.072777987)

  5- 7  2.553851812   5-15  2.024800274   6- 8  2.553851812   6-16  2.024800274   7- 9  2.560461462
       ( 1.351440179)       ( 1.071478162)       ( 1.351440179)       ( 1.071478162)       ( 1.354937855)

  8-10  2.560461462   9-10  2.705359087
       ( 1.354937855)       ( 1.431614376)

 Bond angles

  1- 3- 5  106.23391697   1- 3-13  127.36405031   1- 9- 7  109.95874721   1- 9-10  133.25144880

  2- 4- 6  106.23391697   2- 4-14  127.36405031   2-10- 8  109.95874721   2-10- 9  133.25144880

  3- 1- 9  106.18145271   3- 1-11  127.89430676   3- 5- 7  110.51691111   3- 5-15  133.55692955

  4- 2-10  106.18145271   4- 2-12  127.89430676   4- 6- 8  110.51691111   4- 6-16  133.55692955

  5- 3-13  126.40203272   5- 7- 9  107.10897200   6- 4-14  126.40203272   6- 8-10  107.10897200

  7- 5-15  115.92615933   7- 9-10  116.78980398   8- 6-16  115.92615933   8-10- 9  116.78980398

  9- 1-11  125.92424054  10- 2-12  125.92424054

 NUCLEAR CHARGE:                   70
 NUMBER OF PRIMITIVE AOS:         312
 NUMBER OF SYMMETRY AOS:          302
 NUMBER OF CONTRACTIONS:          170   (   62Ag  +   23Au  +   62Bu  +   23Bg  )
 NUMBER OF INNER CORE ORBITALS:     0   (    0Ag  +    0Au  +    0Bu  +    0Bg  )
 NUMBER OF OUTER CORE ORBITALS:    10   (    5Ag  +    0Au  +    5Bu  +    0Bg  )
 NUMBER OF VALENCE ORBITALS:       46   (   18Ag  +    5Au  +   18Bu  +    5Bg  )


 NUCLEAR REPULSION ENERGY  483.82626621

 Eigenvalues of metric

         1 0.468E-03 0.216E-02 0.500E-02 0.583E-02 0.125E-01 0.172E-01 0.189E-01 0.207E-01
         2 0.759E-01 0.107E+00 0.164E+00 0.171E+00 0.206E+00 0.267E+00 0.346E+00 0.363E+00
         3 0.421E-03 0.775E-03 0.326E-02 0.508E-02 0.967E-02 0.134E-01 0.179E-01 0.193E-01
         4 0.460E-01 0.905E-01 0.143E+00 0.169E+00 0.198E+00 0.247E+00 0.320E+00 0.366E+00


 Contracted 2-electron integrals neglected if value below      1.0D-11
 AO integral compression algorithm  1   Integral accuracy      1.0D-11

     136.053 MB (compressed) written to integral file ( 52.9%)


 NUMBER OF SORTED TWO-ELECTRON INTEGRALS:   28132533.     BUFFER LENGTH:  32768
 NUMBER OF SEGMENTS:   2  SEGMENT LENGTH:   15997308      RECORD LENGTH: 524288

 Memory used in sort:      16.55 MW

 SORT1 READ    32119760. AND WROTE    28007098. INTEGRALS IN     81 RECORDS. CPU TIME:     0.39 SEC, REAL TIME:     0.47 SEC
 SORT2 READ    28007098. AND WROTE    28132533. INTEGRALS IN    519 RECORDS. CPU TIME:     0.29 SEC, REAL TIME:     0.35 SEC

 FILE SIZES:   FILE 1:   167.0 MBYTE,  FILE 4:   339.8 MBYTE,   TOTAL:    506.8 MBYTE

 OPERATOR DM      FOR CENTER  0  COORDINATES:    0.000000    0.000000    0.000000


 **********************************************************************************************************************************
 DATASETS  * FILE   NREC   LENGTH (MB)   RECORD NAMES
              1      19      145.04       500      610      700      900      950      970     1000      129      960     1100   
                                          VAR    BASINP    GEOM    SYMINP    ZMAT    AOBASIS   BASIS     P2S    ABASIS      S 
                                         1400     1410     1200     1210     1080     1600     1650     1300     1700   
                                           T        V       H0       H01     AOSYM     SMH    MOLCAS    ERIS     OPER   

 PROGRAMS   *        TOTAL       INT
 CPU TIMES  *         3.70      3.61
 REAL TIME  *         4.47 SEC
 DISK USED  *       483.97 MB
 **********************************************************************************************************************************


 Program * Restricted Hartree-Fock

 Orbital guess generated from atomic densities. Full valence occupancy:   23   5  23   5

 Initial occupancy:  15   3  14   3

 NELEC=   70   SYM=1   MS2= 0   THRE=1.0D-08   THRD=3.2D-06   THRG=3.2D-06  HFMA2=F  DIIS_START=2   DIIS_MAX=10   DIIS_INCORE=F

 Level shifts:    0.00 (CLOSED)    0.00 (OPEN)    0.30 (GAP_MIN)

 ITER           ETOT              DE          GRAD        DDIFF     DIIS  NEXP   TIME(IT)  TIME(TOT)  DIAG
   1     -456.04260455    -456.04260455     0.00D+00     0.16D+00     0     0       0.06      0.11    start
   2     -456.12475985      -0.08215530     0.71D-02     0.16D-01     1     0       0.05      0.16    diag
   3     -456.14037557      -0.01561572     0.33D-02     0.64D-02     2     0       0.06      0.22    diag
   4     -456.14315466      -0.00277909     0.12D-02     0.25D-02     3     0       0.05      0.27    diag
   5     -456.14331954      -0.00016488     0.29D-03     0.58D-03     4     0       0.06      0.33    diag
   6     -456.14335250      -0.00003296     0.95D-04     0.22D-03     5     0       0.05      0.38    diag
   7     -456.14336158      -0.00000908     0.38D-04     0.14D-03     6     0       0.06      0.44    diag
   8     -456.14336218      -0.00000060     0.11D-04     0.37D-04     7     0       0.05      0.49    fixocc
   9     -456.14336223      -0.00000005     0.44D-05     0.10D-04     8     0       0.06      0.55    diag
  10     -456.14336223      -0.00000000     0.93D-06     0.27D-05     9     0       0.06      0.61    diag/orth
  11     -456.14336223      -0.00000000     0.32D-06     0.81D-06     0     0       0.05      0.66    diag

 Final occupancy:  15   3  14   3

 !RHF STATE 1.1 Energy               -456.143362230321
  RHF One-electron energy           -1580.081805512144
  RHF Two-electron energy             640.112177068303
  RHF Kinetic energy                  456.117308392765
  RHF Nuclear energy                  483.826266213519
  RHF Virial quotient                  -1.000057120914

 !RHF STATE 1.1 Dipole moment           0.00000000     0.00000000     0.00000000
 Dipole moment /Debye                   0.00000000     0.00000000     0.00000000

 Orbital energies:

           1.1          2.1          3.1          4.1          5.1          6.1          7.1          8.1          9.1         10.1
    -20.626975   -11.299132   -11.291730   -11.233713   -11.232684    -1.477302    -1.093147    -1.064147    -0.829508    -0.791147

          11.1         12.1         13.1         14.1         15.1         16.1         17.1
     -0.754446    -0.607793    -0.573790    -0.561906    -0.532353     0.205077     0.232364

           1.2          2.2          3.2          4.2          5.2
     -0.657318    -0.406553    -0.370844     0.109058     0.227765

           1.3          2.3          3.3          4.3          5.3          6.3          7.3          8.3          9.3         10.3
    -20.626972   -11.298231   -11.291730   -11.233715   -11.232685    -1.468670    -1.095175    -0.976542    -0.831116    -0.761488

          11.3         12.3         13.3         14.3         15.3         16.3
     -0.684716    -0.596357    -0.573520    -0.551136     0.205485     0.228830

           1.4          2.4          3.4          4.4          5.4
     -0.629340    -0.400325    -0.272438     0.195069     0.304575


 HOMO      3.4    -0.272438 =      -7.4134eV
 LUMO      4.2     0.109058 =       2.9676eV
 LUMO-HOMO         0.381497 =      10.3810eV

 Orbitals saved in record  2100.2


 **********************************************************************************************************************************
 DATASETS  * FILE   NREC   LENGTH (MB)   RECORD NAMES
              1      19      145.04       500      610      700      900      950      970     1000      129      960     1100   
                                          VAR    BASINP    GEOM    SYMINP    ZMAT    AOBASIS   BASIS     P2S    ABASIS      S 
                                         1400     1410     1200     1210     1080     1600     1650     1300     1700   
                                           T        V       H0       H01     AOSYM     SMH    MOLCAS    ERIS     OPER   

              2       4        0.79       700     1000      520     2100   
                                         GEOM     BASIS   MCVARS     RHF  

 PROGRAMS   *        TOTAL    HF-SCF       INT
 CPU TIMES  *         4.36      0.66      3.61
 REAL TIME  *         5.25 SEC
 DISK USED  *       483.97 MB
 **********************************************************************************************************************************


 PROGRAM * PAPT (Closed-shell)     Authors: C. Hampel, H.-J. Werner, 1991, P.J. Knowles, 2021


 CORETYPE=SMALL

 Convergence thresholds:  THRVAR = 1.00D-08  THRDEN = 1.00D-06

 Number of closed-shell orbitals:  35 (  15   3  14   3 )
 Number of external orbitals:     135 (  47  20  48  20 )

 Molecular orbitals read from record     2100.2  Type=RHF/CANONICAL  

 Number of N-1 electron functions:              35
 Number of N-2 electron functions:             630
 Number of singly external CSFs:              1497
 Number of doubly external CSFs:           2993094
 Total number of CSFs:                     2994592

 Length of J-op  integral file:               0.00 MB
 Length of K-op  integral file:               0.66 MB

 Integral transformation finished. Total CPU:   0.42 sec, npass=  1  Memory used:   5.10 MW

 Reference energy:                   -456.14336223

                        CORR.ENERGY   TOTAL ENERGY   ENERGY CHANGE
 MP2:                   -1.42272347  -457.56608570    -1.42272347

 SCS-MP2 correlation energy:           -1.37035511   (PS=  1.200000  PT=  0.333333)
 SCS-MP2 total energy:               -457.51371734
 Iteration:   1     0.3276D+00
 Iteration:   2     0.1097D+01
 Iteration:   3     0.1115D+00
 Iteration:   4     0.1351D+02
 Iteration:   5     0.4401D-01
 Iteration:   6     0.1302D+00
 Iteration:   7     0.2238D-01
 Iteration:   8     0.2617D-01
 Iteration:   9     0.1058D-01
 Iteration:  10     0.7890D-02
 Iteration:  11     0.5164D-02
 Iteration:  12     0.1607D-02
 Iteration:  13     0.6185D-02
 Iteration:  14     0.4736D-03
 Iteration:  15     0.3890D-02
 Iteration:  16     0.2181D-03
 Iteration:  17     0.9653D-03
 Iteration:  18     0.1166D-03
 Iteration:  19     0.1128D-03
 Iteration:  20     0.5130D-04
 PAPT operator written to  7000.1
 PAPT orbitals and eigenvalues written to  7000.2

 MP3(D):                -1.44897169  -457.59233392    -0.02624822



 RESULTS
 =======

  Reference energy                   -456.143362230321

  Correlated core orbitals:             1.1       2.1       3.1       4.1       5.1       1.3       2.3       3.3       4.3       5.3
  Orbital energies:                   -20.6270  -11.2991  -11.2917  -11.2337  -11.2327  -20.6270  -11.2982  -11.2917  -11.2337  -11.2327

  MP3 core-core energy                 -0.006204461586
  MP3 core-valence energy              -0.018786454553
  MP3 valence correlation energy       -1.423980773104

  MP3 singlet pair energy              -0.918799340898
  MP3 triplet pair energy              -0.530172348345
  MP3 correlation energy               -1.448971689243

 !MP3 total energy                   -457.592333919564

 Timing summary (sec):

 STEP                 CPU(USER)    SYS     CPU(TOT)    WALL
 Transformation          0.46      0.07      0.53      0.55
 CCSD iterations        15.21      0.12     15.33     10.87

 Program statistics:

 Available memory in ccsd:              3145723085
 Min. memory needed in ccsd:               7629103
 Max. memory used in ccsd:                10426451
 Max. memory used in cckext:              10305429 ( 1 integral passes)



 **********************************************************************************************************************************
 DATASETS  * FILE   NREC   LENGTH (MB)   RECORD NAMES
              1      21      202.39       500      610      700      900      950      970     1000      129      960     1100   
                                          VAR    BASINP    GEOM    SYMINP    ZMAT    AOBASIS   BASIS     P2S    ABASIS      S 
                                         1400     1410     1200     1210     1080     1600     1650     1300     1700     1380   
                                           T        V       H0       H01     AOSYM     SMH    MOLCAS    ERIS     OPER     JKOP   
                                         7000   
                                        PAPT AO    

              2       5        1.09       700     1000      520     2100     7000   
                                         GEOM     BASIS   MCVARS     RHF     PAPT   

 PROGRAMS   *        TOTAL      PAPT    HF-SCF       INT
 CPU TIMES  *        15.58     11.21      0.66      3.61
 REAL TIME  *        16.72 SEC
 DISK USED  *       483.97 MB
 **********************************************************************************************************************************


 PROGRAM * MP4 (Closed-shell)     Authors: C. Hampel, H.-J. Werner, 1991, M. Deegan, P.J. Knowles, 1992


 CORETYPE=SMALL

 Convergence thresholds:  THRVAR = 1.00D-08  THRDEN = 1.00D-06

 MP4(T)     terms to be evaluated (factor= 0.000)


 Number of closed-shell orbitals:  35 (  15   3  14   3 )
 Number of external orbitals:     135 (  47  20  48  20 )

 Molecular orbitals read from record     7000.2  Type=PAPT/CANONICAL (state 1.1)

 Number of N-1 electron functions:              35
 Number of N-2 electron functions:             630
 Number of singly external CSFs:              1497
 Number of doubly external CSFs:           2993094
 Total number of CSFs:                     2994592

 Length of J-op  integral file:               0.00 MB
 Length of K-op  integral file:               0.66 MB

 Memory could be reduced to 31.10 Mwords without degradation in triples

 Integral transformation finished. Total CPU:   1.06 sec, npass=  1  Memory used:  14.54 MW
 Orbital energies read from record       7000.2  Type=PAPT/CANONICAL (state 1.1)

 Reference energy:                   -456.14336223

                        CORR.ENERGY   TOTAL ENERGY   ENERGY CHANGE
 MP2:                   -1.46126450  -457.60462673    -1.46126450

 SCS-MP2 correlation energy:           -1.41658064   (PS=  1.200000  PT=  0.333333)
 SCS-MP2 total energy:               -457.55994287

 MP3(D):                -1.46222019  -457.60558242    -0.00095569
 MP4(DQ):               -1.44803480  -457.59139703     0.01418539
 MP4(SDQ):              -1.46097419  -457.60433642    -0.01293939

 Norm of t1 vector:      0.10070804      S-energy:    -0.01293939      T1 diagnostic:  0.00851138

 Largest off-diagonal element in interal  block of Fock matrix:  0.14D+00
 Largest off-diagonal element in external block of Fock matrix:  0.18D+00


 Total CPU time for triples:    100.76 sec


 RESULTS
 =======

  Reference energy                   -456.143362230321

  Correlated core orbitals:             1.1       2.1       3.1       4.1       5.1       1.3       2.3       3.3       4.3       5.3
  Orbital energies:                   -21.5755  -11.5128  -11.4444  -11.3918  -11.3546  -21.5746  -11.4680  -11.4441  -11.3785  -11.3506

  MP4(SDQ) core-core energy            -0.006214860712
  MP4(SDQ) core-valence energy         -0.018666457480
  MP4(SDQ) valence correlation ener    -1.436092869400

  MP4(SDQ) singlet pair energy         -0.918042616310
  MP4(SDQ) triplet pair energy         -0.529992185678
  MP4(SDQ) correlation energy          -1.460974187591

  Triples contribution                 -0.066566897099
  Total correlation energy             -1.527541084690

  MP4(SDQ) total energy              -457.604336417912
 !MP4(SDTQ) total energy             -457.670903315011

 Timing summary (sec):

 STEP                 CPU(USER)    SYS     CPU(TOT)    WALL
 Transformation          1.20      0.15      1.35      1.37
 CCSD iterations        24.66      0.14     24.80      9.13
 Triples               100.76      6.91    107.67    108.35

 Program statistics:

 Available memory in ccsd:              3145723085
 Min. memory needed in ccsd:               7629103
 Max. memory used in ccsd:                10426451
 Max. memory used in cckext:              10305429 ( 1 integral passes)



 **********************************************************************************************************************************
 DATASETS  * FILE   NREC   LENGTH (MB)   RECORD NAMES
              1      22      288.93       500      610      700      900      950      970     1000      129      960     1100   
                                          VAR    BASINP    GEOM    SYMINP    ZMAT    AOBASIS   BASIS     P2S    ABASIS      S 
                                         1400     1410     1200     1210     1080     1600     1650     1300     1700     1380   
                                           T        V       H0       H01     AOSYM     SMH    MOLCAS    ERIS     OPER     JKOP   
                                         7000     1380(1)
                                        PAPT AO   JKOP   

              2       5        1.09       700     1000      520     2100     7000   
                                         GEOM     BASIS   MCVARS     RHF     PAPT   

 PROGRAMS   *        TOTAL       MP4      PAPT    HF-SCF       INT
 CPU TIMES  *       126.53    110.95     11.21      0.66      3.61
 REAL TIME  *       135.61 SEC
 DISK USED  *       548.20 MB
 **********************************************************************************************************************************

 Dump information in style XML to xml output                                                                      

 Orbitals will not be exported.

 **********************************************************************************************************************************

 MP4/cc-pVDZ energy=   -457.670903315011

             MP4            PAPT          HF-SCF
   -457.67090332   -457.59233392   -456.14336223
 **********************************************************************************************************************************
 Molpro calculation terminated
