
 Working directory              : /var/folders/2v/xbgp75_9785319ghcgb4zr4r0000gr/T//molpro.2WpKItXZKj/
 Global scratch directory       : /var/folders/2v/xbgp75_9785319ghcgb4zr4r0000gr/T//molpro.2WpKItXZKj/
 Wavefunction directory         : /Users/peterk/wfu/
 Main file repository           : /var/folders/2v/xbgp75_9785319ghcgb4zr4r0000gr/T//molpro.2WpKItXZKj/

 id        : peterk

 Nodes        nprocs
 pjk2022.local    1
 GA implementation: MPI file
 GA implementation (serial work in mppx): MPI file

 Using customized tuning parameters: mindgm=1; mindgv=20; mindgc=4; mindgr=1; noblas=0; minvec=7
 default implementation of scratch files=df  


 Variables initialized (1037), CPU time= 0.00 sec
 
 
 
 geometry={
 14
    S   0.98779870405458      1.69086160103578     -0.05066348834743
    N   -1.61020626241202      1.29841557679330     -0.15110636422454
    N   -0.45937754110138     -0.56434099610713      0.46247752051631
    C   -0.39187803613607      0.81146297110409      0.08312164825440
    H   -2.39944662163556      0.68603673671140     -0.07469157169080
    H   -1.71732706237349      2.24968276800537     -0.44737711775701
    H   -0.09355347324586     -0.62431146031493      1.40484970021227
    C   0.35853015001570     -1.43528095502525     -0.38652433348388
    C   0.17576382702346     -2.87823112876741      0.01789791268898
    H   0.02638680315895     -1.29125299608293     -1.41240020244336
    H   1.41001052507674     -1.14570964346512     -0.34147789184360
    H   -0.86056658362450     -3.18390849009666     -0.09862125903260
    H   0.79399441235166     -3.52647688600623     -0.59574030773924
    H   0.46967115884778     -3.03394709778427      1.05528575489050
 }
 basis=cc-pVDZ
 core,small
 
 
 hf; ccsd(t)
 
 
 
 {put,xml;noorbitals,nobasis}
 Commands initialized (841), CPU time= 0.01 sec, 716 directives.
 Default parameters read. Elapsed time= 0.05 sec

 Checking input...
 Passed
1


                                         ***  PROGRAM SYSTEM MOLPRO  ***
                                       Copyright, TTI GmbH Stuttgart, 2015
                                    Version 2023.1 linked Sat Jul 22 07:59:25 2023


 **********************************************************************************************************************************
 LABEL *                                                                                                                                                                 
  64 bit serial version                                                                  DATE: 02-Aug-23          TIME: 11:08:45  
 **********************************************************************************************************************************

 SHA1:             401d111a1dbfa49388eacdf0424f85138b2d30d0
 **********************************************************************************************************************************

 Memory per process:      3146 MW
 Total memory per node:   4194 MW
 Total GA space:          1049 MW

 GA preallocation disabled
 GA check enabled

 Geometry recognized as XYZ


 Variable memory set to 3145.7 MW

 SETTING BASIS          =    CC-PVDZ


 Recomputing integrals since basis changed


 Using spherical harmonics

 Library entry S      S cc-pVDZ              selected for orbital group  1
 Library entry S      P cc-pVDZ              selected for orbital group  1
 Library entry S      D cc-pVDZ              selected for orbital group  1
 Library entry N      S cc-pVDZ              selected for orbital group  2
 Library entry N      P cc-pVDZ              selected for orbital group  2
 Library entry N      D cc-pVDZ              selected for orbital group  2
 Library entry C      S cc-pVDZ              selected for orbital group  3
 Library entry C      P cc-pVDZ              selected for orbital group  3
 Library entry C      D cc-pVDZ              selected for orbital group  3
 Library entry H      S cc-pVDZ              selected for orbital group  4
 Library entry H      P cc-pVDZ              selected for orbital group  4


 PROGRAM * SEWARD (Integral evaluation for generally contracted gaussian basis sets)     Author: Roland Lindh, 1990

 Geometry written to block  1 of record 700


 Point group  C1  



 ATOMIC COORDINATES

 NR  ATOM    CHARGE       X              Y              Z

   1  S      16.00    1.866669017    3.195265341   -0.095740117
   2  N       7.00   -3.042848840    2.453649836   -0.285549644
   3  N       7.00   -0.868097740   -1.066449924    0.873955853
   4  C       6.00   -0.740542163    1.533442776    0.157077150
   5  H       1.00   -4.534296966    1.296421544   -0.141146614
   6  H       1.00   -3.245277814    4.251284299   -0.845420227
   7  H       1.00   -0.176790442   -1.179777676    2.654781180
   8  C       6.00    0.677523791   -2.712287917   -0.730425131
   9  C       6.00    0.332145496   -5.439068557    0.033822153
  10  H       1.00    0.049863831   -2.440114520   -2.669049561
  11  H       1.00    2.664533725   -2.165077444   -0.645299693
  12  H       1.00   -1.626235155   -6.016715052   -0.186367170
  13  H       1.00    1.500431984   -6.664075499   -1.125786023
  14  H       1.00    0.887549859   -5.733329091    1.994201060

 Bond lengths in Bohr (Angstrom)

 1-4  3.102115559  2-4  2.518593963  2-5  1.893263602  2-6  1.893653142  3-4  2.699931026
     ( 1.641568860)     ( 1.332782529)     ( 1.001871952)     ( 1.002078088)     ( 1.428741970)

  3- 7  1.913658226   3- 8  2.769795472   8- 9  2.852839416   8-10  2.055796698   8-11  2.062739470
       ( 1.012664323)       ( 1.465712643)       ( 1.509657606)       ( 1.087880763)       ( 1.091554719)

  9-12  2.053634238   9-13  2.051883635   9-14  2.058676450
       ( 1.086736438)       ( 1.085810059)       ( 1.089404662)

 Bond angles

  1-4-2  123.93384259   1-4-3  125.25406779   2-4-3  110.81207183   3-8-9  110.19536626

  3- 8-10  107.28862889   3- 8-11  110.85488901   4- 2- 5  118.90685175   4- 2- 6  119.76987664

  4-3-7  106.68121101   4-3-8  113.08088762   5-2-6  121.23710752   7-3-8  107.59330572

  8- 9-12  110.82884716   8- 9-13  110.50616541   8- 9-14  111.04235178   9- 8-10  110.01108238

  9- 8-11  111.04653176  10- 8-11  107.33137431  12- 9-13  108.32704282  12- 9-14  108.61262649

 13- 9-14  107.41039509

 NUCLEAR CHARGE:                   56
 NUMBER OF PRIMITIVE AOS:         233
 NUMBER OF SYMMETRY AOS:          227
 NUMBER OF CONTRACTIONS:          128   (  128A   )
 NUMBER OF INNER CORE ORBITALS:     1   (    1A   )
 NUMBER OF OUTER CORE ORBITALS:     9   (    9A   )
 NUMBER OF VALENCE ORBITALS:       32   (   32A   )


 NUCLEAR REPULSION ENERGY  294.60900077


 Eigenvalues of metric

         1 0.315E-02 0.380E-02 0.474E-02 0.588E-02 0.836E-02 0.183E-01 0.204E-01 0.242E-01


 Contracted 2-electron integrals neglected if value below      1.0D-11
 AO integral compression algorithm  1   Integral accuracy      1.0D-11

     132.383 MB (compressed) written to integral file ( 46.3%)


 NUMBER OF SORTED TWO-ELECTRON INTEGRALS:   34084896.     BUFFER LENGTH:  32768
 NUMBER OF SEGMENTS:   3  SEGMENT LENGTH:   15998004      RECORD LENGTH: 524288

 Memory used in sort:      16.56 MW

 SORT1 READ    35843054. AND WROTE    31260994. INTEGRALS IN     91 RECORDS. CPU TIME:     0.26 SEC, REAL TIME:     0.33 SEC
 SORT2 READ    31260994. AND WROTE    34084896. INTEGRALS IN    505 RECORDS. CPU TIME:     0.28 SEC, REAL TIME:     0.34 SEC

 FILE SIZES:   FILE 1:   163.2 MBYTE,  FILE 4:   381.7 MBYTE,   TOTAL:    545.0 MBYTE

 OPERATOR DM      FOR CENTER  0  COORDINATES:    0.000000    0.000000    0.000000


 **********************************************************************************************************************************
 DATASETS  * FILE   NREC   LENGTH (MB)   RECORD NAMES
              1      19      142.47       500      610      700      900      950      970     1000      129      960     1100   
                                          VAR    BASINP    GEOM    SYMINP    ZMAT    AOBASIS   BASIS     P2S    ABASIS      S 
                                         1400     1410     1200     1210     1080     1600     1650     1300     1700   
                                           T        V       H0       H01     AOSYM     SMH    MOLCAS    ERIS     OPER   

 PROGRAMS   *        TOTAL       INT
 CPU TIMES  *         2.17      2.08
 REAL TIME  *         2.92 SEC
 DISK USED  *       520.29 MB
 **********************************************************************************************************************************


 Program * Restricted Hartree-Fock

 Orbital guess generated from atomic densities. Full valence occupancy:   42

 Initial occupancy:  28

 NELEC=   56   SYM=1   MS2= 0   THRE=1.0D-08   THRD=3.2D-06   THRG=3.2D-06  HFMA2=F  DIIS_START=2   DIIS_MAX=10   DIIS_INCORE=F

 Level shifts:    0.00 (CLOSED)    0.00 (OPEN)    0.30 (GAP_MIN)

 ITER           ETOT              DE          GRAD        DDIFF     DIIS  NEXP   TIME(IT)  TIME(TOT)  DIAG
   1     -624.60455844    -624.60455844     0.00D+00     0.11D+00     0     0       0.15      0.29    start
   2     -624.68186727      -0.07730883     0.51D-02     0.14D-01     1     0       0.15      0.44    diag
   3     -624.70224798      -0.02038071     0.26D-02     0.51D-02     2     0       0.15      0.59    diag
   4     -624.70485009      -0.00260211     0.82D-03     0.17D-02     3     0       0.15      0.74    diag
   5     -624.70503299      -0.00018290     0.18D-03     0.45D-03     4     0       0.14      0.88    diag
   6     -624.70505874      -0.00002575     0.61D-04     0.18D-03     5     0       0.14      1.02    diag
   7     -624.70506218      -0.00000344     0.22D-04     0.63D-04     6     0       0.15      1.17    diag
   8     -624.70506259      -0.00000041     0.69D-05     0.24D-04     7     0       0.16      1.33    fixocc
   9     -624.70506262      -0.00000003     0.19D-05     0.60D-05     8     0       0.14      1.47    diag
  10     -624.70506262      -0.00000001     0.70D-06     0.26D-05     9     0       0.15      1.62    diag/orth
  11     -624.70506262      -0.00000000     0.31D-06     0.86D-06     0     0       0.16      1.78    diag

 Final occupancy:  28

 !RHF STATE 1.1 Energy               -624.705062624203
  RHF One-electron energy           -1442.560447452182
  RHF Two-electron energy             523.246384054006
  RHF Kinetic energy                  624.643532149639
  RHF Nuclear energy                  294.609000773972
  RHF Virial quotient                  -1.000098504941

 !RHF STATE 1.1 Dipole moment          -1.31251272    -0.73377484     0.03247475
 Dipole moment /Debye                  -3.33607458    -1.86506961     0.08254258

 Orbital energies:

           1.1          2.1          3.1          4.1          5.1          6.1          7.1          8.1          9.1         10.1
    -91.887103   -15.609673   -15.571415   -11.370196   -11.261148   -11.226624    -8.892455    -6.574905    -6.571934    -6.570753

          11.1         12.1         13.1         14.1         15.1         16.1         17.1         18.1         19.1         20.1
     -1.301606    -1.201415    -1.024219    -0.972029    -0.852596    -0.803407    -0.738675    -0.669215    -0.657921    -0.609711

          21.1         22.1         23.1         24.1         25.1         26.1         27.1         28.1         29.1         30.1
     -0.549423    -0.532583    -0.521251    -0.505803    -0.499491    -0.408856    -0.330263    -0.319169     0.126986     0.173745


 HOMO     28.1    -0.319169 =      -8.6850eV
 LUMO     29.1     0.126986 =       3.4555eV
 LUMO-HOMO         0.446155 =      12.1405eV

 Orbitals saved in record  2100.2


 **********************************************************************************************************************************
 DATASETS  * FILE   NREC   LENGTH (MB)   RECORD NAMES
              1      19      142.47       500      610      700      900      950      970     1000      129      960     1100   
                                          VAR    BASINP    GEOM    SYMINP    ZMAT    AOBASIS   BASIS     P2S    ABASIS      S 
                                         1400     1410     1200     1210     1080     1600     1650     1300     1700   
                                           T        V       H0       H01     AOSYM     SMH    MOLCAS    ERIS     OPER   

              2       4        0.86       700     1000      520     2100   
                                         GEOM     BASIS   MCVARS     RHF  

 PROGRAMS   *        TOTAL    HF-SCF       INT
 CPU TIMES  *         3.95      1.78      2.08
 REAL TIME  *         4.85 SEC
 DISK USED  *       520.29 MB
 **********************************************************************************************************************************


 PROGRAM * CCSD (Closed-shell coupled cluster)     Authors: C. Hampel, H.-J. Werner, 1991, M. Deegan, P.J. Knowles, 1992


 CORETYPE=SMALL

 Convergence thresholds:  THRVAR = 1.00D-08  THRDEN = 1.00D-06

 CCSD(T)     terms to be evaluated (factor= 1.000)


 Number of core orbitals:           1 (   1 )
 Number of closed-shell orbitals:  27 (  27 )
 Number of external orbitals:     100 ( 100 )

 Molecular orbitals read from record     2100.2  Type=RHF/CANONICAL  

 Checking core orbitals using projection, core_type=SMALL
 Threshold for active space selection:  0.30


  Number of target functions:              1

 Number of N-1 electron functions:              27
 Number of N-2 electron functions:             378
 Number of singly external CSFs:              2700
 Number of doubly external CSFs:           3646350
 Total number of CSFs:                     3649051

 Length of J-op  integral file:               0.00 MB
 Length of K-op  integral file:               1.19 MB
 Length of 3-ext integral record:             0.00 MB

 Memory could be reduced to 38.73 Mwords without degradation in triples

 Integral transformation finished. Total CPU:   2.36 sec, npass=  1  Memory used:  39.83 MW

 Reference energy:                   -624.70506262

 MP2 singlet pair energy:              -0.55937954
 MP2 triplet pair energy:              -0.34497351
 MP2 correlation energy:               -0.90435305
 MP2 total energy:                   -625.60941568

 SCS-MP2 correlation energy:           -0.88590564   (PS=  1.200000  PT=  0.333333)
 SCS-MP2 total energy:               -625.59096826

 ITER.      SQ.NORM     CORR.ENERGY   TOTAL ENERGY   ENERGY CHANGE        DEN1      VAR(S)    VAR(P)  DIIS     TIME  TIME/IT
   1      1.33079142    -0.95562565  -625.66068827    -0.05127260    -0.02595824  0.56D-02  0.55D-02  1  1    19.84    13.45
   2      1.35689076    -0.96021006  -625.66527268    -0.00458440    -0.02439656  0.17D-03  0.80D-03  2  2    32.71    13.28
   3      1.36641792    -0.96071569  -625.66577831    -0.00050563    -0.00440863  0.17D-03  0.40D-04  3  3    46.64    13.69
   4      1.37063395    -0.96074018  -625.66580280    -0.00002449    -0.00119132  0.26D-04  0.76D-05  4  4    61.06    14.05
   5      1.37267987    -0.96074797  -625.66581059    -0.00000779    -0.00031670  0.52D-05  0.12D-05  5  5    75.09    14.14
   6      1.37344596    -0.96071977  -625.66578239     0.00002820    -0.00007363  0.64D-06  0.22D-06  6  6    88.98    14.17
   7      1.37367621    -0.96071266  -625.66577528     0.00000711    -0.00001436  0.17D-06  0.37D-07  6  2   103.72    14.36
   8      1.37372675    -0.96071289  -625.66577552    -0.00000024    -0.00000299  0.32D-07  0.93D-08  6  1   116.89    14.25
   9      1.37375090    -0.96071234  -625.66577496     0.00000056    -0.00000203  0.62D-08  0.20D-08  6  3   131.36    14.36

 Norm of t1 vector:      0.12624458      S-energy:     0.00000356      T1 diagnostic:  0.01214789
                                                                       D1 diagnostic:  0.07305887
                                                                       D2 diagnostic:  0.16802727 (external, symmetry=1)

 Doubles amplitudes (print threshold =  0.500E-01):

         I         J         SYM. A    SYM. B    A         B      T(IJ, AB)

        26        26         1         1         1         1     -0.07997311


 Total CPU time for triples:    143.69 sec


 RESULTS
 =======

  Reference energy                   -624.705062624206

  Correlated core orbitals:             2.1       3.1       4.1       5.1       6.1       7.1       8.1       9.1      10.1
  Orbital energies:                   -15.6097  -15.5714  -11.3702  -11.2611  -11.2266   -8.8925   -6.5749   -6.5719   -6.5708

  CCSD core-core energy                -0.006892753366
  CCSD core-valence energy             -0.012718919459
  CCSD valence correlation energy      -0.941100662468

  CCSD singlet pair energy             -0.645786186992
  CCSD triplet pair energy             -0.314929704141
  CCSD correlation energy              -0.960712335293

  Triples (T) contribution             -0.032130870112
  Total correlation energy             -0.992843205404

  CCSD total energy                  -625.665774959498
  CCSD[T] energy                     -625.699386843111
  CCSD-T energy                      -625.697390158534
 !CCSD(T) total energy               -625.697905829610

 Timing summary (sec):

 STEP                 CPU(USER)    SYS     CPU(TOT)    WALL
 Transformation          2.63      0.31      2.94      3.16
 CCSD iterations       128.96      2.04    131.00    129.48
 Triples               143.69      5.45    149.14    153.82

 Program statistics:

 Available memory in ccsd:              3145725056
 Min. memory needed in ccsd:               9487275
 Max. memory used in ccsd:                12827607
 Max. memory used in cckext:              12793008 ( 9 integral passes)



 **********************************************************************************************************************************
 DATASETS  * FILE   NREC   LENGTH (MB)   RECORD NAMES
              1      20      317.82       500      610      700      900      950      970     1000      129      960     1100   
                                          VAR    BASINP    GEOM    SYMINP    ZMAT    AOBASIS   BASIS     P2S    ABASIS      S 
                                         1400     1410     1200     1210     1080     1600     1650     1300     1700     1380   
                                           T        V       H0       H01     AOSYM     SMH    MOLCAS    ERIS     OPER     JKOP   

              2       4        0.86       700     1000      520     2100   
                                         GEOM     BASIS   MCVARS     RHF  

 PROGRAMS   *        TOTAL   CCSD(T)    HF-SCF       INT
 CPU TIMES  *       275.20    271.25      1.78      2.08
 REAL TIME  *       291.36 SEC
 DISK USED  *       908.89 MB
 **********************************************************************************************************************************

 Dump information in style XML to xml output                                                                      

 Orbitals will not be exported.

 **********************************************************************************************************************************

 CCSD(T)/cc-pVDZ energy=   -625.697905829610

         CCSD(T)          HF-SCF
   -625.69790583   -624.70506262
 **********************************************************************************************************************************
 Molpro calculation terminated
