
 Working directory              : /var/folders/2v/xbgp75_9785319ghcgb4zr4r0000gr/T//molpro.KAy3Rmzps5/
 Global scratch directory       : /var/folders/2v/xbgp75_9785319ghcgb4zr4r0000gr/T//molpro.KAy3Rmzps5/
 Wavefunction directory         : /Users/peterk/wfu/
 Main file repository           : /var/folders/2v/xbgp75_9785319ghcgb4zr4r0000gr/T//molpro.KAy3Rmzps5/

 id        : peterk

 Nodes        nprocs
 pjk2022.local    1
 GA implementation: MPI file
 GA implementation (serial work in mppx): MPI file

 Using customized tuning parameters: mindgm=1; mindgv=20; mindgc=4; mindgr=1; noblas=0; minvec=7
 default implementation of scratch files=df  


 Variables initialized (1037), CPU time= 0.00 sec
 
 
 
 geometry={
 6
  C     0.1354501    0.3335445    0.0000000
  O     0.1744673   -1.0774079    0.0000000
  H     0.6439155    0.7202929    0.8794450
  H     0.6439155    0.7202929   -0.8794450
  H    -0.8812042    0.7207713    0.0000000
  H    -0.7165441   -1.4174937    0.0000000
 }
 basis=cc-pVDZ
 core,small
 
 
 hf; papt;mp2
 
 
 
 {put,xml;noorbitals,nobasis}
 Commands initialized (841), CPU time= 0.01 sec, 716 directives.
 Default parameters read. Elapsed time= 0.06 sec

 Checking input...
 Passed
1


                                         ***  PROGRAM SYSTEM MOLPRO  ***
                                       Copyright, TTI GmbH Stuttgart, 2015
                                    Version 2023.1 linked Sat Jul 22 07:59:25 2023


 **********************************************************************************************************************************
 LABEL *                                                                                                                                                                 
  64 bit serial version                                                                  DATE: 01-Aug-23          TIME: 21:47:49  
 **********************************************************************************************************************************

 SHA1:             401d111a1dbfa49388eacdf0424f85138b2d30d0
 **********************************************************************************************************************************

 Memory per process:      3146 MW
 Total memory per node:   4194 MW
 Total GA space:          1049 MW

 GA preallocation disabled
 GA check enabled

 Geometry recognized as XYZ


 Variable memory set to 3145.7 MW

 SETTING BASIS          =    CC-PVDZ


 Recomputing integrals since basis changed


 Using spherical harmonics

 Library entry C      S cc-pVDZ              selected for orbital group  1
 Library entry C      P cc-pVDZ              selected for orbital group  1
 Library entry C      D cc-pVDZ              selected for orbital group  1
 Library entry O      S cc-pVDZ              selected for orbital group  2
 Library entry O      P cc-pVDZ              selected for orbital group  2
 Library entry O      D cc-pVDZ              selected for orbital group  2
 Library entry H      S cc-pVDZ              selected for orbital group  3
 Library entry H      P cc-pVDZ              selected for orbital group  3


 PROGRAM * SEWARD (Integral evaluation for generally contracted gaussian basis sets)     Author: Roland Lindh, 1990

 Geometry written to block  1 of record 700


 Point group  Cs  



 ATOMIC COORDINATES

 NR  ATOM    CHARGE       X              Y              Z

   1  C       6.00    0.255963593    0.630307755    0.000000000
   2  O       8.00    0.329695415   -2.036005856    0.000000000
   3  H       1.00    1.216823942    1.361156311    1.661910192
   4  H       1.00    1.216823942    1.361156311   -1.661910192
   5  H       1.00   -1.665234598    1.362060355    0.000000000
   6  H       1.00   -1.354072105   -2.678674876    0.000000000

 Bond lengths in Bohr (Angstrom)

 1-2  2.667332873  1-3  2.054102653  1-4  2.054102653  1-5  2.055836656  2-6  1.802247633
     ( 1.411491770)     ( 1.086984313)     ( 1.086984313)     ( 1.087901908)     ( 0.953708376)

 Bond angles

  1-2-6  109.30710981   2-1-3  110.04346811   2-1-4  110.04346811   2-1-5  112.43501110

  3-1-4  108.01008361   3-1-5  108.08925879   4-1-5  108.08925879

 NUCLEAR CHARGE:                   18
 NUMBER OF PRIMITIVE AOS:          82
 NUMBER OF SYMMETRY AOS:           80
 NUMBER OF CONTRACTIONS:           48   (   33A'  +   15A"  )
 NUMBER OF INNER CORE ORBITALS:     0   (    0A'  +    0A"  )
 NUMBER OF OUTER CORE ORBITALS:     2   (    2A'  +    0A"  )
 NUMBER OF VALENCE ORBITALS:       12   (    9A'  +    3A"  )


 NUCLEAR REPULSION ENERGY   40.51787732

 Eigenvalues of metric

         1 0.961E-02 0.173E-01 0.331E-01 0.376E-01 0.471E-01 0.533E-01 0.731E-01 0.102E+00
         2 0.367E-01 0.481E-01 0.125E+00 0.177E+00 0.313E+00 0.476E+00 0.577E+00 0.910E+00


 Contracted 2-electron integrals neglected if value below      1.0D-11
 AO integral compression algorithm  1   Integral accuracy      1.0D-11

     2.359 MB (compressed) written to integral file ( 61.7%)


 NUMBER OF SORTED TWO-ELECTRON INTEGRALS:     366861.     BUFFER LENGTH:  32768
 NUMBER OF SEGMENTS:   1  SEGMENT LENGTH:     366861      RECORD LENGTH: 524288

 Memory used in sort:       0.92 MW

 SORT1 READ      442681. AND WROTE      361439. INTEGRALS IN      2 RECORDS. CPU TIME:     0.00 SEC, REAL TIME:     0.01 SEC
 SORT2 READ      361439. AND WROTE      366861. INTEGRALS IN      9 RECORDS. CPU TIME:     0.01 SEC, REAL TIME:     0.02 SEC

 FILE SIZES:   FILE 1:    32.5 MBYTE,  FILE 4:     8.5 MBYTE,   TOTAL:     40.9 MBYTE

 OPERATOR DM      FOR CENTER  0  COORDINATES:    0.000000    0.000000    0.000000


 **********************************************************************************************************************************
 DATASETS  * FILE   NREC   LENGTH (MB)   RECORD NAMES
              1      19       30.39       500      610      700      900      950      970     1000      129      960     1100   
                                          VAR    BASINP    GEOM    SYMINP    ZMAT    AOBASIS   BASIS     P2S    ABASIS      S 
                                         1400     1410     1200     1210     1080     1600     1650     1300     1700   
                                           T        V       H0       H01     AOSYM     SMH    MOLCAS    ERIS     OPER   

 PROGRAMS   *        TOTAL       INT
 CPU TIMES  *         0.33      0.24
 REAL TIME  *         0.81 SEC
 DISK USED  *        39.46 MB
 **********************************************************************************************************************************


 Program * Restricted Hartree-Fock

 Orbital guess generated from atomic densities. Full valence occupancy:   11   3

 Initial occupancy:   7   2

 NELEC=   18   SYM=1   MS2= 0   THRE=1.0D-08   THRD=3.2D-06   THRG=3.2D-06  HFMA2=F  DIIS_START=2   DIIS_MAX=10   DIIS_INCORE=F

 Level shifts:    0.00 (CLOSED)    0.00 (OPEN)    0.30 (GAP_MIN)

 ITER           ETOT              DE          GRAD        DDIFF     DIIS  NEXP   TIME(IT)  TIME(TOT)  DIAG
   1     -115.01269681    -115.01269681     0.00D+00     0.21D+00     0     0       0.00      0.00    start
   2     -115.04101316      -0.02831635     0.13D-01     0.27D-01     1     0       0.00      0.00    diag
   3     -115.04688530      -0.00587214     0.62D-02     0.83D-02     2     0       0.00      0.00    diag
   4     -115.04733669      -0.00045139     0.13D-02     0.27D-02     3     0       0.00      0.00    diag
   5     -115.04735614      -0.00001945     0.23D-03     0.55D-03     4     0       0.01      0.01    diag
   6     -115.04735682      -0.00000068     0.40D-04     0.11D-03     5     0       0.00      0.01    diag
   7     -115.04735685      -0.00000003     0.85D-05     0.18D-04     6     0       0.00      0.01    diag
   8     -115.04735685      -0.00000000     0.28D-05     0.66D-05     7     0       0.00      0.01    fixocc
   9     -115.04735685      -0.00000000     0.56D-06     0.18D-05     8     0       0.00      0.01    diag
  10     -115.04735685      -0.00000000     0.87D-07     0.22D-06     0     0       0.00      0.01    diag/orth

 Final occupancy:   7   2

 !RHF STATE 1.1 Energy               -115.047356851556
  RHF One-electron energy            -237.290131436110
  RHF Two-electron energy              81.724897264635
  RHF Kinetic energy                  114.995482183216
  RHF Nuclear energy                   40.517877319920
  RHF Virial quotient                  -1.000451101794

 !RHF STATE 1.1 Dipole moment          -0.61973535     0.38267098     0.00000000
 Dipole moment /Debye                  -1.57521014     0.97265261     0.00000000

 Orbital energies:

           1.1          2.1          3.1          4.1          5.1          6.1          7.1          8.1          9.1
    -20.546564   -11.271974    -1.352275    -0.923659    -0.686631    -0.590696    -0.494924     0.182524     0.221480

           1.2          2.2          3.2          4.2
     -0.614017    -0.439430     0.272689     0.631929


 HOMO      2.2    -0.439430 =     -11.9575eV
 LUMO      8.1     0.182524 =       4.9667eV
 LUMO-HOMO         0.621954 =      16.9242eV

 Orbitals saved in record  2100.2


 **********************************************************************************************************************************
 DATASETS  * FILE   NREC   LENGTH (MB)   RECORD NAMES
              1      19       30.39       500      610      700      900      950      970     1000      129      960     1100   
                                          VAR    BASINP    GEOM    SYMINP    ZMAT    AOBASIS   BASIS     P2S    ABASIS      S 
                                         1400     1410     1200     1210     1080     1600     1650     1300     1700   
                                           T        V       H0       H01     AOSYM     SMH    MOLCAS    ERIS     OPER   

              2       4        0.48       700     1000      520     2100   
                                         GEOM     BASIS   MCVARS     RHF  

 PROGRAMS   *        TOTAL    HF-SCF       INT
 CPU TIMES  *         0.34      0.01      0.24
 REAL TIME  *         0.83 SEC
 DISK USED  *        39.46 MB
 **********************************************************************************************************************************


 PROGRAM * PAPT (Closed-shell)     Authors: C. Hampel, H.-J. Werner, 1991, P.J. Knowles, 2021


 CORETYPE=SMALL

 Convergence thresholds:  THRVAR = 1.00D-08  THRDEN = 1.00D-06

 Number of closed-shell orbitals:   9 (   7   2 )
 Number of external orbitals:      39 (  26  13 )

 Molecular orbitals read from record     2100.2  Type=RHF/CANONICAL  

 Number of N-1 electron functions:               9
 Number of N-2 electron functions:              45
 Number of singly external CSFs:               208
 Number of doubly external CSFs:             32032
 Total number of CSFs:                       32241

 Length of J-op  integral file:               0.00 MB
 Length of K-op  integral file:               0.15 MB

 Integral transformation finished. Total CPU:   0.01 sec, npass=  1  Memory used:   0.14 MW

 Reference energy:                   -115.04735685

                        CORR.ENERGY   TOTAL ENERGY   ENERGY CHANGE
 MP2:                   -0.34238357  -115.38974042    -0.34238357

 SCS-MP2 correlation energy:           -0.34038061   (PS=  1.200000  PT=  0.333333)
 SCS-MP2 total energy:               -115.38773746
 Iteration:   1     0.2122D+00
 Iteration:   2     0.2672D+01
 Iteration:   3     0.9037D-01
 Iteration:   4     0.2240D+00
 Iteration:   5     0.6195D-01
 Iteration:   6     0.4027D-01
 Iteration:   7     0.4186D-01
 Iteration:   8     0.1955D-01
 Iteration:   9     0.2442D-01
 Iteration:  10     0.5861D-02
 Iteration:  11     0.2823D-01
 Iteration:  12     0.2252D-02
 Iteration:  13     0.1001D-02
 Iteration:  14     0.7829D-02
 Iteration:  15     0.3465D-03
 Iteration:  16     0.7661D-03
 Iteration:  17     0.1470D-03
 Iteration:  18     0.1482D-03
 Iteration:  19     0.1163D-03
 Iteration:  20     0.5306D-04
 PAPT operator written to  7000.1
 PAPT orbitals and eigenvalues written to  7000.2

 MP3(D):                -0.36179021  -115.40914706    -0.01940664



 RESULTS
 =======

  Reference energy                   -115.047356851556

  Correlated core orbitals:             1.1       2.1
  Orbital energies:                   -20.5466  -11.2720

  MP3 core-core energy                 -0.001173285346
  MP3 core-valence energy              -0.003818655668
  MP3 valence correlation energy       -0.356798267121

  MP3 singlet pair energy              -0.246964869833
  MP3 triplet pair energy              -0.114825338301
  MP3 correlation energy               -0.361790208134

 !MP3 total energy                   -115.409147059690

 Timing summary (sec):

 STEP                 CPU(USER)    SYS     CPU(TOT)    WALL
 Transformation          0.01      0.00      0.01      0.01
 CCSD iterations         0.53      0.02      0.55      0.09

 Program statistics:

 Available memory in ccsd:              3145727669
 Min. memory needed in ccsd:                108673
 Max. memory used in ccsd:                  133362
 Max. memory used in cckext:                167663 ( 1 integral passes)



 **********************************************************************************************************************************
 DATASETS  * FILE   NREC   LENGTH (MB)   RECORD NAMES
              1      21       31.05       500      610      700      900      950      970     1000      129      960     1100   
                                          VAR    BASINP    GEOM    SYMINP    ZMAT    AOBASIS   BASIS     P2S    ABASIS      S 
                                         1400     1410     1200     1210     1080     1600     1650     1300     1700     1380   
                                           T        V       H0       H01     AOSYM     SMH    MOLCAS    ERIS     OPER     JKOP   
                                         7000   
                                        PAPT AO    

              2       5        0.61       700     1000      520     2100     7000   
                                         GEOM     BASIS   MCVARS     RHF     PAPT   

 PROGRAMS   *        TOTAL      PAPT    HF-SCF       INT
 CPU TIMES  *         0.46      0.12      0.01      0.24
 REAL TIME  *         0.96 SEC
 DISK USED  *        39.46 MB
 **********************************************************************************************************************************


 PROGRAM * MP2 (Closed-shell)     Authors: C. Hampel, H.-J. Werner, 1991, M. Deegan, P.J. Knowles, 1992


 CORETYPE=SMALL

 Convergence thresholds:  THRVAR = 1.00D-08  THRDEN = 1.00D-06

 Number of closed-shell orbitals:   9 (   7   2 )
 Number of external orbitals:      39 (  26  13 )

 Molecular orbitals read from record     7000.2  Type=PAPT/CANONICAL (state 1.1)

 Number of N-1 electron functions:               9
 Number of N-2 electron functions:              45
 Number of singly external CSFs:               208
 Number of doubly external CSFs:             32032
 Total number of CSFs:                       32241

 Length of J-op  integral file:               0.00 MB
 Length of K-op  integral file:               0.15 MB

 Integral transformation finished. Total CPU:   0.00 sec, npass=  1  Memory used:   0.14 MW
 Orbital energies read from record       7000.2  Type=PAPT/CANONICAL (state 1.1)

 Memory needed for MP2:                      0.01 MW

 SCS-MP2 correlation energy:           -0.366141509429   (PS=  1.200000  PT=  0.333333)
 SCS-MP2 total energy:               -115.413498360985


  Reference energy                   -115.047356851556

  Correlated core orbitals:             1.1       2.1
  Orbital energies:                   -21.4824  -11.3241

  MP2 core-core energy                 -0.001185034432
  MP2 core-valence energy              -0.003755118692
  MP2 valence correlation energy       -0.361053546798

  MP2 singlet pair energy              -0.239559397173
  MP2 triplet pair energy              -0.126434302748
  MP2 correlation energy               -0.365993699921

 !MP2 total energy                   -115.413350551477


 **********************************************************************************************************************************
 DATASETS  * FILE   NREC   LENGTH (MB)   RECORD NAMES
              1      21       31.05       500      610      700      900      950      970     1000      129      960     1100   
                                          VAR    BASINP    GEOM    SYMINP    ZMAT    AOBASIS   BASIS     P2S    ABASIS      S 
                                         1400     1410     1200     1210     1080     1600     1650     1300     1700     1380   
                                           T        V       H0       H01     AOSYM     SMH    MOLCAS    ERIS     OPER     JKOP   
                                         7000   
                                        PAPT AO    

              2       5        0.61       700     1000      520     2100     7000   
                                         GEOM     BASIS   MCVARS     RHF     PAPT   

 PROGRAMS   *        TOTAL       MP2      PAPT    HF-SCF       INT
 CPU TIMES  *         0.50      0.04      0.12      0.01      0.24
 REAL TIME  *         1.01 SEC
 DISK USED  *        39.46 MB
 **********************************************************************************************************************************

 Dump information in style XML to xml output                                                                      

 Orbitals will not be exported.

 **********************************************************************************************************************************

 MP2/cc-pVDZ energy=   -115.413350551477

             MP2            PAPT          HF-SCF
   -115.41335055   -115.40914706   -115.04735685
 **********************************************************************************************************************************
 Molpro calculation terminated
