
 Working directory              : /var/folders/2v/xbgp75_9785319ghcgb4zr4r0000gr/T//molpro.gNRLec4LvB/
 Global scratch directory       : /var/folders/2v/xbgp75_9785319ghcgb4zr4r0000gr/T//molpro.gNRLec4LvB/
 Wavefunction directory         : /Users/peterk/wfu/
 Main file repository           : /var/folders/2v/xbgp75_9785319ghcgb4zr4r0000gr/T//molpro.gNRLec4LvB/

 id        : peterk

 Nodes        nprocs
 pjk2022.local    1
 GA implementation: MPI file
 GA implementation (serial work in mppx): MPI file

 Using customized tuning parameters: mindgm=1; mindgv=20; mindgc=4; mindgr=1; noblas=0; minvec=7
 default implementation of scratch files=df  


 Variables initialized (1037), CPU time= 0.00 sec
 
 
 
 geometry={
 6
  O     0.1640874    1.0771522    0.0000000
  C     0.1319097   -0.3310036    0.0000000
  H     1.1612146   -0.6758875    0.0000000
  H    -0.3605642   -0.7355506    0.8858582
  H    -0.3605642   -0.7355506   -0.8858582
  H    -0.7360833    1.4008402    0.0000000
 }
 basis=cc-pVTZ
 core,small
 
 
 hf; papt;mp4
 
 
 
 {put,xml;noorbitals,nobasis}
 Commands initialized (841), CPU time= 0.01 sec, 716 directives.
 Default parameters read. Elapsed time= 0.06 sec

 Checking input...
 Passed
1


                                         ***  PROGRAM SYSTEM MOLPRO  ***
                                       Copyright, TTI GmbH Stuttgart, 2015
                                    Version 2023.1 linked Sat Jul 22 07:59:25 2023


 **********************************************************************************************************************************
 LABEL *                                                                                                                                                                 
  64 bit serial version                                                                  DATE: 02-Aug-23          TIME: 00:17:53  
 **********************************************************************************************************************************

 SHA1:             401d111a1dbfa49388eacdf0424f85138b2d30d0
 **********************************************************************************************************************************

 Memory per process:      3146 MW
 Total memory per node:   4194 MW
 Total GA space:          1049 MW

 GA preallocation disabled
 GA check enabled

 Geometry recognized as XYZ


 Variable memory set to 3145.7 MW

 SETTING BASIS          =    CC-PVTZ


 Recomputing integrals since basis changed


 Using spherical harmonics

 Library entry O      S cc-pVTZ              selected for orbital group  1
 Library entry O      P cc-pVTZ              selected for orbital group  1
 Library entry O      D cc-pVTZ              selected for orbital group  1
 Library entry O      F cc-pVTZ              selected for orbital group  1
 Library entry C      S cc-pVTZ              selected for orbital group  2
 Library entry C      P cc-pVTZ              selected for orbital group  2
 Library entry C      D cc-pVTZ              selected for orbital group  2
 Library entry C      F cc-pVTZ              selected for orbital group  2
 Library entry H      S cc-pVTZ              selected for orbital group  3
 Library entry H      P cc-pVTZ              selected for orbital group  3
 Library entry H      D cc-pVTZ              selected for orbital group  3


 PROGRAM * SEWARD (Integral evaluation for generally contracted gaussian basis sets)     Author: Roland Lindh, 1990

 Geometry written to block  1 of record 700


 Point group  Cs  



 ATOMIC COORDINATES

 NR  ATOM    CHARGE       X              Y              Z

   1  O       8.00    0.310080247    2.035522653    0.000000000
   2  C       6.00    0.249273206   -0.625506150    0.000000000
   3  H       1.00    2.194377566   -1.277242266    0.000000000
   4  H       1.00   -0.681367588   -1.389989185    1.674029383
   5  H       1.00   -0.681367588   -1.389989185   -1.674029383
   6  H       1.00   -1.390995842    2.647204322    0.000000000

 Bond lengths in Bohr (Angstrom)

 1-2  2.661723462  1-6  1.807709690  2-3  2.051387563  2-4  2.062256282  2-5  2.062256282
     ( 1.408523398)     ( 0.956598772)     ( 1.085547549)     ( 1.091299028)     ( 1.091299028)

 Bond angles

  1-2-3  107.21515527   1-2-4  112.39036072   1-2-5  112.39036072   2-1-6  108.46879529

  3-2-4  108.06637220   3-2-5  108.06637220   4-2-5  108.53384977

 NUCLEAR CHARGE:                   18
 NUMBER OF PRIMITIVE AOS:         162
 NUMBER OF SYMMETRY AOS:          148
 NUMBER OF CONTRACTIONS:          116   (   74A'  +   42A"  )
 NUMBER OF INNER CORE ORBITALS:     0   (    0A'  +    0A"  )
 NUMBER OF OUTER CORE ORBITALS:     2   (    2A'  +    0A"  )
 NUMBER OF VALENCE ORBITALS:       12   (    9A'  +    3A"  )


 NUCLEAR REPULSION ENERGY   40.54140040

 Eigenvalues of metric

         1 0.132E-02 0.178E-02 0.231E-02 0.327E-02 0.452E-02 0.718E-02 0.985E-02 0.103E-01
         2 0.189E-02 0.105E-01 0.215E-01 0.318E-01 0.372E-01 0.473E-01 0.759E-01 0.958E-01


 Contracted 2-electron integrals neglected if value below      1.0D-11
 AO integral compression algorithm  1   Integral accuracy      1.0D-11

     60.031 MB (compressed) written to integral file ( 53.6%)


 NUMBER OF SORTED TWO-ELECTRON INTEGRALS:   11777331.     BUFFER LENGTH:  32768
 NUMBER OF SEGMENTS:   1  SEGMENT LENGTH:   11777331      RECORD LENGTH: 524288

 Memory used in sort:      12.33 MW

 SORT1 READ    13984354. AND WROTE    11637287. INTEGRALS IN     34 RECORDS. CPU TIME:     0.09 SEC, REAL TIME:     0.12 SEC
 SORT2 READ    11637287. AND WROTE    11777331. INTEGRALS IN    229 RECORDS. CPU TIME:     0.12 SEC, REAL TIME:     0.16 SEC

 FILE SIZES:   FILE 1:    90.5 MBYTE,  FILE 4:   142.7 MBYTE,   TOTAL:    233.1 MBYTE

 OPERATOR DM      FOR CENTER  0  COORDINATES:    0.000000    0.000000    0.000000


 **********************************************************************************************************************************
 DATASETS  * FILE   NREC   LENGTH (MB)   RECORD NAMES
              1      19       77.84       500      610      700      900      950      970     1000      129      960     1100   
                                          VAR    BASINP    GEOM    SYMINP    ZMAT    AOBASIS   BASIS     P2S    ABASIS      S 
                                         1400     1410     1200     1210     1080     1600     1650     1300     1700   
                                           T        V       H0       H01     AOSYM     SMH    MOLCAS    ERIS     OPER   

 PROGRAMS   *        TOTAL       INT
 CPU TIMES  *         0.98      0.89
 REAL TIME  *         1.58 SEC
 DISK USED  *       222.77 MB
 **********************************************************************************************************************************


 Program * Restricted Hartree-Fock

 Orbital guess generated from atomic densities. Full valence occupancy:   11   3

 Initial occupancy:   7   2

 NELEC=   18   SYM=1   MS2= 0   THRE=1.0D-08   THRD=3.2D-06   THRG=3.2D-06  HFMA2=F  DIIS_START=2   DIIS_MAX=10   DIIS_INCORE=F

 Level shifts:    0.00 (CLOSED)    0.00 (OPEN)    0.30 (GAP_MIN)

 ITER           ETOT              DE          GRAD        DDIFF     DIIS  NEXP   TIME(IT)  TIME(TOT)  DIAG
   1     -115.05400219    -115.05400219     0.00D+00     0.96D-01     0     0       0.04      0.07    start
   2     -115.08227358      -0.02827139     0.83D-02     0.11D-01     1     0       0.03      0.10    diag
   3     -115.08914395      -0.00687037     0.44D-02     0.34D-02     2     0       0.03      0.13    diag
   4     -115.08964699      -0.00050304     0.87D-03     0.94D-03     3     0       0.03      0.16    diag
   5     -115.08967709      -0.00003010     0.17D-03     0.25D-03     4     0       0.04      0.20    diag
   6     -115.08967840      -0.00000131     0.32D-04     0.65D-04     5     0       0.03      0.23    diag
   7     -115.08967846      -0.00000005     0.69D-05     0.12D-04     6     0       0.03      0.26    diag
   8     -115.08967846      -0.00000000     0.22D-05     0.34D-05     7     0       0.03      0.29    fixocc
   9     -115.08967846      -0.00000000     0.57D-06     0.11D-05     8     0       0.04      0.33    diag
  10     -115.08967846      -0.00000000     0.11D-06     0.17D-06     0     0       0.03      0.36    diag/orth

 Final occupancy:   7   2

 !RHF STATE 1.1 Energy               -115.089678461738
  RHF One-electron energy            -237.351562013576
  RHF Two-electron energy              81.720483151423
  RHF Kinetic energy                  114.983593228024
  RHF Nuclear energy                   40.541400400415
  RHF Virial quotient                  -1.000922611920

 !RHF STATE 1.1 Dipole moment          -0.57396152    -0.38134562     0.00000000
 Dipole moment /Debye                  -1.45886468    -0.96928387     0.00000000

 Orbital energies:

           1.1          2.1          3.1          4.1          5.1          6.1          7.1          8.1          9.1
    -20.551820   -11.267259    -1.358375    -0.924436    -0.691291    -0.594039    -0.500392     0.138760     0.178709

           1.2          2.2          3.2          4.2
     -0.619690    -0.447998     0.221070     0.404403


 HOMO      2.2    -0.447998 =     -12.1907eV
 LUMO      8.1     0.138760 =       3.7758eV
 LUMO-HOMO         0.586758 =      15.9665eV

 Orbitals saved in record  2100.2


 **********************************************************************************************************************************
 DATASETS  * FILE   NREC   LENGTH (MB)   RECORD NAMES
              1      19       77.84       500      610      700      900      950      970     1000      129      960     1100   
                                          VAR    BASINP    GEOM    SYMINP    ZMAT    AOBASIS   BASIS     P2S    ABASIS      S 
                                         1400     1410     1200     1210     1080     1600     1650     1300     1700   
                                           T        V       H0       H01     AOSYM     SMH    MOLCAS    ERIS     OPER   

              2       4        0.58       700     1000      520     2100   
                                         GEOM     BASIS   MCVARS     RHF  

 PROGRAMS   *        TOTAL    HF-SCF       INT
 CPU TIMES  *         1.34      0.36      0.89
 REAL TIME  *         2.00 SEC
 DISK USED  *       222.77 MB
 **********************************************************************************************************************************


 PROGRAM * PAPT (Closed-shell)     Authors: C. Hampel, H.-J. Werner, 1991, P.J. Knowles, 2021


 CORETYPE=SMALL

 Convergence thresholds:  THRVAR = 1.00D-08  THRDEN = 1.00D-06

 Number of closed-shell orbitals:   9 (   7   2 )
 Number of external orbitals:     107 (  67  40 )

 Molecular orbitals read from record     2100.2  Type=RHF/CANONICAL  

 Number of N-1 electron functions:               9
 Number of N-2 electron functions:              45
 Number of singly external CSFs:               549
 Number of doubly external CSFs:            236880
 Total number of CSFs:                      237430

 Length of J-op  integral file:               0.00 MB
 Length of K-op  integral file:               0.56 MB

 Integral transformation finished. Total CPU:   0.06 sec, npass=  1  Memory used:   0.42 MW

 Reference energy:                   -115.08967846

                        CORR.ENERGY   TOTAL ENERGY   ENERGY CHANGE
 MP2:                   -0.45712875  -115.54680721    -0.45712875

 SCS-MP2 correlation energy:           -0.45882435   (PS=  1.200000  PT=  0.333333)
 SCS-MP2 total energy:               -115.54850281
 Iteration:   1     0.2392D+00
 Iteration:   2     0.2350D+01
 Iteration:   3     0.7489D-01
 Iteration:   4     0.2006D+00
 Iteration:   5     0.3443D-01
 Iteration:   6     0.2578D-01
 Iteration:   7     0.2864D-01
 Iteration:   8     0.1007D-01
 Iteration:   9     0.2534D-01
 Iteration:  10     0.4120D-02
 Iteration:  11     0.4458D-02
 Iteration:  12     0.1763D-02
 Iteration:  13     0.1056D-02
 Iteration:  14     0.3752D-02
 Iteration:  15     0.4286D-03
 Iteration:  16     0.1040D-02
 Iteration:  17     0.1904D-03
 Iteration:  18     0.1290D-03
 Iteration:  19     0.2430D-03
 Iteration:  20     0.2673D-04
 PAPT operator written to  7000.1
 PAPT orbitals and eigenvalues written to  7000.2

 MP3(D):                -0.47296359  -115.56264205    -0.01583484



 RESULTS
 =======

  Reference energy                   -115.089678461738

  Correlated core orbitals:             1.1       2.1
  Orbital energies:                   -20.5518  -11.2673

  MP3 core-core energy                 -0.017114339192
  MP3 core-valence energy              -0.013379300279
  MP3 valence correlation energy       -0.442469953701

  MP3 singlet pair energy              -0.327439345205
  MP3 triplet pair energy              -0.145524247966
  MP3 correlation energy               -0.472963593171

 !MP3 total energy                   -115.562642054909

 Timing summary (sec):

 STEP                 CPU(USER)    SYS     CPU(TOT)    WALL
 Transformation          0.06      0.01      0.07      0.07
 CCSD iterations         1.93      0.04      1.97      0.53

 Program statistics:

 Available memory in ccsd:              3145727669
 Min. memory needed in ccsd:                701107
 Max. memory used in ccsd:                  902343
 Max. memory used in cckext:                931233 ( 1 integral passes)



 **********************************************************************************************************************************
 DATASETS  * FILE   NREC   LENGTH (MB)   RECORD NAMES
              1      21       81.56       500      610      700      900      950      970     1000      129      960     1100   
                                          VAR    BASINP    GEOM    SYMINP    ZMAT    AOBASIS   BASIS     P2S    ABASIS      S 
                                         1400     1410     1200     1210     1080     1600     1650     1300     1700     1380   
                                           T        V       H0       H01     AOSYM     SMH    MOLCAS    ERIS     OPER     JKOP   
                                         7000   
                                        PAPT AO    

              2       5        0.85       700     1000      520     2100     7000   
                                         GEOM     BASIS   MCVARS     RHF     PAPT   

 PROGRAMS   *        TOTAL      PAPT    HF-SCF       INT
 CPU TIMES  *         1.91      0.56      0.36      0.89
 REAL TIME  *         2.62 SEC
 DISK USED  *       222.77 MB
 **********************************************************************************************************************************


 PROGRAM * MP4 (Closed-shell)     Authors: C. Hampel, H.-J. Werner, 1991, M. Deegan, P.J. Knowles, 1992


 CORETYPE=SMALL

 Convergence thresholds:  THRVAR = 1.00D-08  THRDEN = 1.00D-06

 MP4(T)     terms to be evaluated (factor= 0.000)


 Number of closed-shell orbitals:   9 (   7   2 )
 Number of external orbitals:     107 (  67  40 )

 Molecular orbitals read from record     7000.2  Type=PAPT/CANONICAL (state 1.1)

 Number of N-1 electron functions:               9
 Number of N-2 electron functions:              45
 Number of singly external CSFs:               549
 Number of doubly external CSFs:            236880
 Total number of CSFs:                      237430

 Length of J-op  integral file:               0.00 MB
 Length of K-op  integral file:               0.56 MB

 Memory could be reduced to 7.63 Mwords without degradation in triples

 Integral transformation finished. Total CPU:   0.12 sec, npass=  1  Memory used:   2.66 MW
 Orbital energies read from record       7000.2  Type=PAPT/CANONICAL (state 1.1)

 Reference energy:                   -115.08967846

                        CORR.ENERGY   TOTAL ENERGY   ENERGY CHANGE
 MP2:                   -0.47744770  -115.56712616    -0.47744770

 SCS-MP2 correlation energy:           -0.48146219   (PS=  1.200000  PT=  0.333333)
 SCS-MP2 total energy:               -115.57114065

 MP3(D):                -0.47768582  -115.56736429    -0.00023813
 MP4(DQ):               -0.47332235  -115.56300081     0.00436348
 MP4(SDQ):              -0.47618701  -115.56586547    -0.00286466

 Norm of t1 vector:      0.03908781      S-energy:    -0.00286466      T1 diagnostic:  0.00651464

 Largest off-diagonal element in interal  block of Fock matrix:  0.17D+00
 Largest off-diagonal element in external block of Fock matrix:  0.44D+00


 Total CPU time for triples:      1.32 sec


 RESULTS
 =======

  Reference energy                   -115.089678461738

  Correlated core orbitals:             1.1       2.1
  Orbital energies:                   -20.0362  -10.6634

  MP4(SDQ) core-core energy            -0.017259632377
  MP4(SDQ) core-valence energy         -0.013347898832
  MP4(SDQ) valence correlation ener    -0.445579480683

  MP4(SDQ) singlet pair energy         -0.328146206994
  MP4(SDQ) triplet pair energy         -0.145176142567
  MP4(SDQ) correlation energy          -0.476187011891

  Triples contribution                 -0.016750544047
  Total correlation energy             -0.492937555938

  MP4(SDQ) total energy              -115.565865473629
 !MP4(SDTQ) total energy             -115.582616017676

 Timing summary (sec):

 STEP                 CPU(USER)    SYS     CPU(TOT)    WALL
 Transformation          0.20      0.03      0.23      0.23
 CCSD iterations         2.38      0.02      2.40      0.39
 Triples                 1.32      0.09      1.41      1.42

 Program statistics:

 Available memory in ccsd:              3145727669
 Min. memory needed in ccsd:                701107
 Max. memory used in ccsd:                  902343
 Max. memory used in cckext:                931233 ( 1 integral passes)



 **********************************************************************************************************************************
 DATASETS  * FILE   NREC   LENGTH (MB)   RECORD NAMES
              1      22      103.00       500      610      700      900      950      970     1000      129      960     1100   
                                          VAR    BASINP    GEOM    SYMINP    ZMAT    AOBASIS   BASIS     P2S    ABASIS      S 
                                         1400     1410     1200     1210     1080     1600     1650     1300     1700     1380   
                                           T        V       H0       H01     AOSYM     SMH    MOLCAS    ERIS     OPER     JKOP   
                                         7000     1380(1)
                                        PAPT AO   JKOP   

              2       5        0.85       700     1000      520     2100     7000   
                                         GEOM     BASIS   MCVARS     RHF     PAPT   

 PROGRAMS   *        TOTAL       MP4      PAPT    HF-SCF       INT
 CPU TIMES  *         3.82      1.92      0.56      0.36      0.89
 REAL TIME  *         4.68 SEC
 DISK USED  *       222.77 MB
 **********************************************************************************************************************************

 Dump information in style XML to xml output                                                                      

 Orbitals will not be exported.

 **********************************************************************************************************************************

 MP4/cc-pVTZ energy=   -115.582616017676

             MP4            PAPT          HF-SCF
   -115.58261602   -115.56264205   -115.08967846
 **********************************************************************************************************************************
 Molpro calculation terminated
