
 Working directory              : /var/folders/2v/xbgp75_9785319ghcgb4zr4r0000gr/T//molpro.5ZpNArWb0c/
 Global scratch directory       : /var/folders/2v/xbgp75_9785319ghcgb4zr4r0000gr/T//molpro.5ZpNArWb0c/
 Wavefunction directory         : /Users/peterk/wfu/
 Main file repository           : /var/folders/2v/xbgp75_9785319ghcgb4zr4r0000gr/T//molpro.5ZpNArWb0c/

 id        : peterk

 Nodes        nprocs
 pjk2022.local    1
 GA implementation: MPI file
 GA implementation (serial work in mppx): MPI file

 Using customized tuning parameters: mindgm=1; mindgv=20; mindgc=4; mindgr=1; noblas=0; minvec=7
 default implementation of scratch files=df  


 Variables initialized (1037), CPU time= 0.01 sec
 
 
 
 geometry={
 14
    C   0.62527800830666      2.89809627957375     -0.03936045477419
    C   -0.34255388276270      1.73745370003310     -0.03150100176433
    N   0.36138843311159      0.47998433732143      0.01403975045456
    C   -0.22542645347882     -0.72812870820658      0.09515084552755
    N   -1.56562722239652     -0.73828988669266     -0.07257090139012
    S   0.64293020269652     -2.11955820431433      0.35396039167116
    H   -2.11587316489113      0.09765190100243     -0.03875317825241
    H   -2.02216029547534     -1.61654192112677      0.07076902579688
    H   1.34388428549199      0.47744786420014      0.21511755062804
    H   -0.96428971121995      1.77250469141176     -0.92748736392476
    H   -1.00987152277285      1.82684418928150      0.83109160294360
    H   1.29351690735313      2.84225750698511     -0.89453694539721
    H   0.07941403827619      3.83516192614587     -0.09217618418552
    H   1.22905937776120      2.90822932438525      0.86522986266675
 }
 basis=cc-pVTZ
 core,small
 
 
 hf; mp4
 
 
 
 {put,xml;noorbitals,nobasis}
 Commands initialized (841), CPU time= 0.00 sec, 716 directives.
 Default parameters read. Elapsed time= 0.06 sec

 Checking input...
 Passed
1


                                         ***  PROGRAM SYSTEM MOLPRO  ***
                                       Copyright, TTI GmbH Stuttgart, 2015
                                    Version 2023.1 linked Sat Jul 22 07:59:25 2023


 **********************************************************************************************************************************
 LABEL *                                                                                                                                                                 
  64 bit serial version                                                                  DATE: 01-Aug-23          TIME: 15:01:55  
 **********************************************************************************************************************************

 SHA1:             401d111a1dbfa49388eacdf0424f85138b2d30d0
 **********************************************************************************************************************************

 Memory per process:      3146 MW
 Total memory per node:   4194 MW
 Total GA space:          1049 MW

 GA preallocation disabled
 GA check enabled

 Geometry recognized as XYZ


 Variable memory set to 3145.7 MW

 SETTING BASIS          =    CC-PVTZ


 Recomputing integrals since basis changed


 Using spherical harmonics

 Library entry C      S cc-pVTZ              selected for orbital group  1
 Library entry C      P cc-pVTZ              selected for orbital group  1
 Library entry C      D cc-pVTZ              selected for orbital group  1
 Library entry C      F cc-pVTZ              selected for orbital group  1
 Library entry N      S cc-pVTZ              selected for orbital group  2
 Library entry N      P cc-pVTZ              selected for orbital group  2
 Library entry N      D cc-pVTZ              selected for orbital group  2
 Library entry N      F cc-pVTZ              selected for orbital group  2
 Library entry S      S cc-pVTZ              selected for orbital group  5
 Library entry S      P cc-pVTZ              selected for orbital group  5
 Library entry S      D cc-pVTZ              selected for orbital group  5
 Library entry S      F cc-pVTZ              selected for orbital group  5
 Library entry H      S cc-pVTZ              selected for orbital group  6
 Library entry H      P cc-pVTZ              selected for orbital group  6
 Library entry H      D cc-pVTZ              selected for orbital group  6


 PROGRAM * SEWARD (Integral evaluation for generally contracted gaussian basis sets)     Author: Roland Lindh, 1990

 Geometry written to block  1 of record 700


 Point group  C1  



 ATOMIC COORDINATES

 NR  ATOM    CHARGE       X              Y              Z

   1  C       6.00    1.181604187    5.476608251   -0.074380480
   2  C       6.00   -0.647333021    3.283311647   -0.059528266
   3  N       7.00    0.682925163    0.907038942    0.026531283
   4  C       6.00   -0.425994258   -1.375963842    0.179809039
   5  N       7.00   -2.958606664   -1.395165686   -0.137139128
   6  S      16.00    1.214962000   -4.005384511    0.668888199
   7  H       1.00   -3.998420796    0.184535348   -0.073232893
   8  H       1.00   -3.821329139   -3.054821500    0.133734077
   9  H       1.00    2.539573243    0.902245702    0.406513255
  10  H       1.00   -1.822243459    3.349548421   -1.752697102
  11  H       1.00   -1.908380599    3.452235190    1.570535514
  12  H       1.00    2.444392692    5.371088264   -1.690429835
  13  H       1.00    0.150070783    7.247405684   -0.174187743
  14  H       1.00    2.322585615    5.495756931    1.635047475

 Bond lengths in Bohr (Angstrom)

  1- 2  2.855832960   1-12  2.053627229   1-13  2.051766605   1-14  2.055322170   2- 3  2.724640353
       ( 1.511241721)       ( 1.086732729)       ( 1.085748130)       ( 1.087629653)       ( 1.441817583)

  2-10  2.061946302   2-11  2.067821096   3- 4  2.542695039   3- 9  1.895138878   4- 5  2.552440097
       ( 1.091134993)       ( 1.094243800)       ( 1.345536269)       ( 1.002864306)       ( 1.350693131)

 4-6  3.137800014  5-7  1.892287715  5-8  1.890005233
     ( 1.660452260)     ( 1.001355535)     ( 1.000147698)

 Bond angles

  1- 2- 3  110.93444824   1- 2-10  109.63183291   1- 2-11  109.38517980   2- 1-12  111.00380871

  2- 1-13  109.94474000   2- 1-14  110.99891742   2- 3- 4  124.89286902   2- 3- 9  119.13409952

  3- 2-10  109.39937660   3- 2-11  110.12645060   3- 4- 5  115.59461765   3- 4- 6  122.25700367

  4-3-9  114.38741641   4-5-7  122.32754425   4-5-8  116.21426822   5-4-6  122.13744593

  7- 5- 8  118.51552963  10- 2-11  107.28927974  12- 1-13  108.37366584  12- 1-14  108.27715888

 13- 1-14  108.15046511

 NUCLEAR CHARGE:                   56
 NUMBER OF PRIMITIVE AOS:         435
 NUMBER OF SYMMETRY AOS:          397
 NUMBER OF CONTRACTIONS:          296   (  296A   )
 NUMBER OF INNER CORE ORBITALS:     1   (    1A   )
 NUMBER OF OUTER CORE ORBITALS:     9   (    9A   )
 NUMBER OF VALENCE ORBITALS:       32   (   32A   )


 NUCLEAR REPULSION ENERGY  293.41225290


 Eigenvalues of metric

         1 0.610E-03 0.692E-03 0.875E-03 0.939E-03 0.979E-03 0.126E-02 0.137E-02 0.146E-02


 Contracted 2-electron integrals neglected if value below      1.0D-11
 AO integral compression algorithm  1   Integral accuracy      1.0D-11

     2932.343 MB (compressed) written to integral file ( 37.1%)


 NUMBER OF SORTED TWO-ELECTRON INTEGRALS:  966086946.     BUFFER LENGTH:  32768
 NUMBER OF SEGMENTS:  61  SEGMENT LENGTH:   15999984      RECORD LENGTH: 262144

 Memory used in sort:      16.29 MW

 SORT1 READ   988937047. AND WROTE   766008916. INTEGRALS IN   4414 RECORDS. CPU TIME:     7.66 SEC, REAL TIME:    11.33 SEC
 SORT2 READ   766008916. AND WROTE   966086946. INTEGRALS IN  11186 RECORDS. CPU TIME:     5.36 SEC, REAL TIME:    16.18 SEC

 FILE SIZES:   FILE 1:  2965.8 MBYTE,  FILE 4:  9256.9 MBYTE,   TOTAL:  12222.7 MBYTE

 OPERATOR DM      FOR CENTER  0  COORDINATES:    0.000000    0.000000    0.000000


 **********************************************************************************************************************************
 DATASETS  * FILE   NREC   LENGTH (MB)   RECORD NAMES
              1      19     2601.60       500      610      700      900      950      970     1000      129      960     1100   
                                          VAR    BASINP    GEOM    SYMINP    ZMAT    AOBASIS   BASIS     P2S    ABASIS      S 
                                         1400     1410     1200     1210     1080     1600     1650     1300     1700   
                                           T        V       H0       H01     AOSYM     SMH    MOLCAS    ERIS     OPER   

 PROGRAMS   *        TOTAL       INT
 CPU TIMES  *        34.05     33.95
 REAL TIME  *        52.48 SEC
 DISK USED  *        11.38 GB
 **********************************************************************************************************************************


 Program * Restricted Hartree-Fock

 Orbital guess generated from atomic densities. Full valence occupancy:   42

 Initial occupancy:  28

 NELEC=   56   SYM=1   MS2= 0   THRE=1.0D-08   THRD=3.2D-06   THRG=3.2D-06  HFMA2=F  DIIS_START=2   DIIS_MAX=10   DIIS_INCORE=F

 Level shifts:    0.00 (CLOSED)    0.00 (OPEN)    0.30 (GAP_MIN)

 ITER           ETOT              DE          GRAD        DDIFF     DIIS  NEXP   TIME(IT)  TIME(TOT)  DIAG
   1     -624.70657131    -624.70657131     0.00D+00     0.48D-01     0     0       3.81      7.61    start
   2     -624.78667951      -0.08010820     0.31D-02     0.54D-02     1     0       3.72     11.33    diag
   3     -624.80319330      -0.01651379     0.14D-02     0.16D-02     2     0       4.26     15.59    diag
   4     -624.80587915      -0.00268585     0.51D-03     0.59D-03     3     0       4.60     20.19    diag
   5     -624.80611769      -0.00023854     0.12D-03     0.19D-03     4     0       4.31     24.50    diag
   6     -624.80615476      -0.00003707     0.41D-04     0.91D-04     5     0       4.37     28.87    diag
   7     -624.80615811      -0.00000335     0.12D-04     0.28D-04     6     0       4.45     33.32    diag
   8     -624.80615839      -0.00000028     0.38D-05     0.70D-05     7     0       3.96     37.28    fixocc
   9     -624.80615842      -0.00000004     0.12D-05     0.25D-05     8     0       3.91     41.19    diag
  10     -624.80615843      -0.00000001     0.50D-06     0.10D-05     9     0       4.53     45.72    diag/orth
  11     -624.80615843      -0.00000000     0.22D-06     0.39D-06     0     0       4.50     50.22    diag

 Final occupancy:  28

 !RHF STATE 1.1 Energy               -624.806158429971
  RHF One-electron energy           -1439.931948809541
  RHF Two-electron energy             521.713537482692
  RHF Kinetic energy                  624.663760423332
  RHF Nuclear energy                  293.412252896878
  RHF Virial quotient                  -1.000227959449

 !RHF STATE 1.1 Dipole moment          -1.16030659     2.19230833    -0.09124881
 Dipole moment /Debye                  -2.94920519     5.57229196    -0.23193134

 Orbital energies:

           1.1          2.1          3.1          4.1          5.1          6.1          7.1          8.1          9.1         10.1
    -91.870899   -15.595246   -15.594883   -11.366022   -11.288449   -11.242445    -8.876241    -6.557914    -6.555792    -6.555312

          11.1         12.1         13.1         14.1         15.1         16.1         17.1         18.1         19.1         20.1
     -1.317589    -1.209881    -1.058936    -0.963799    -0.871242    -0.826957    -0.746393    -0.685158    -0.673397    -0.647172

          21.1         22.1         23.1         24.1         25.1         26.1         27.1         28.1         29.1         30.1
     -0.574931    -0.570902    -0.542880    -0.520146    -0.494155    -0.420830    -0.313002    -0.311837     0.117159     0.139108


 HOMO     28.1    -0.311837 =      -8.4855eV
 LUMO     29.1     0.117159 =       3.1881eV
 LUMO-HOMO         0.428996 =      11.6736eV

 Orbitals saved in record  2100.2


 **********************************************************************************************************************************
 DATASETS  * FILE   NREC   LENGTH (MB)   RECORD NAMES
              1      19     2601.60       500      610      700      900      950      970     1000      129      960     1100   
                                          VAR    BASINP    GEOM    SYMINP    ZMAT    AOBASIS   BASIS     P2S    ABASIS      S 
                                         1400     1410     1200     1210     1080     1600     1650     1300     1700   
                                           T        V       H0       H01     AOSYM     SMH    MOLCAS    ERIS     OPER   

              2       4        1.98       700     1000      520     2100   
                                         GEOM     BASIS   MCVARS     RHF  

 PROGRAMS   *        TOTAL    HF-SCF       INT
 CPU TIMES  *        84.27     50.23     33.95
 REAL TIME  *       107.12 SEC
 DISK USED  *        11.38 GB
 **********************************************************************************************************************************


 PROGRAM * MP4 (Closed-shell)     Authors: C. Hampel, H.-J. Werner, 1991, M. Deegan, P.J. Knowles, 1992


 CORETYPE=SMALL

 Convergence thresholds:  THRVAR = 1.00D-08  THRDEN = 1.00D-06

 MP4(T)     terms to be evaluated (factor= 0.000)


 Number of core orbitals:           1 (   1 )
 Number of closed-shell orbitals:  27 (  27 )
 Number of external orbitals:     268 ( 268 )

 Molecular orbitals read from record     2100.2  Type=RHF/CANONICAL  

 Checking core orbitals using projection, core_type=SMALL
 Threshold for active space selection:  0.30


  Number of target functions:              1

 Number of N-1 electron functions:              27
 Number of N-2 electron functions:             378
 Number of singly external CSFs:              7236
 Number of doubly external CSFs:          26183466
 Total number of CSFs:                    26190703

 Length of J-op  integral file:               0.00 MB
 Length of K-op  integral file:               6.08 MB

 Memory could be reduced to 629.33 Mwords without degradation in triples

 Integral transformation finished. Total CPU:  52.91 sec, npass=  1  Memory used: 419.01 MW

 Reference energy:                   -624.80615843

                        CORR.ENERGY   TOTAL ENERGY   ENERGY CHANGE
 MP2:                   -1.20967317  -626.01583160    -1.20967317

 SCS-MP2 correlation energy:           -1.20034684   (PS=  1.200000  PT=  0.333333)
 SCS-MP2 total energy:               -626.00650527

 MP3(D):                -1.25333269  -626.05949112    -0.04365952
 MP4(DQ):               -1.24751793  -626.05367636     0.00581476
 MP4(SDQ):              -1.25784971  -626.06400814    -0.01033178

 Norm of t1 vector:      0.09094567      S-energy:    -0.01033178      T1 diagnostic:  0.00875125

   CPU time for triples:   1925.53 sec for i =  1 - 21 / 27 (~  48.2 % done)
   CPU time for triples:   1969.24 sec for i = 22 - 27 / 27 (  100.0 % done)

 Total CPU time for triples:   3894.77 sec


 RESULTS
 =======

  Reference energy                   -624.806158429970

  Correlated core orbitals:             2.1       3.1       4.1       5.1       6.1       7.1       8.1       9.1      10.1
  Orbital energies:                   -15.5953  -15.5949  -11.3660  -11.2885  -11.2424   -8.8762   -6.5579   -6.5558   -6.5553

  MP4(SDQ) core-core energy            -0.071304608839
  MP4(SDQ) core-valence energy         -0.045429895063
  MP4(SDQ) valence correlation ener    -1.141115202334

  MP4(SDQ) singlet pair energy         -0.841035709460
  MP4(SDQ) triplet pair energy         -0.406482219006
  MP4(SDQ) correlation energy          -1.257849706235

  Triples contribution                 -0.055761984340
  Total correlation energy             -1.313611690575

  MP4(SDQ) total energy              -626.064008136205
 !MP4(SDTQ) total energy             -626.119770120545

 Timing summary (sec):

 STEP                 CPU(USER)    SYS     CPU(TOT)    WALL
 Transformation         55.48      9.65     65.13     61.01
 CCSD iterations       349.11      6.10    355.21    241.24
 Triples              3894.77    100.75   3995.52   4041.87

 Program statistics:

 Available memory in ccsd:              3145725056
 Min. memory needed in ccsd:              60698883
 Max. memory used in ccsd:                85489959
 Max. memory used in cckext:              67513179 ( 1 integral passes)



 **********************************************************************************************************************************
 DATASETS  * FILE   NREC   LENGTH (MB)   RECORD NAMES
              1      20     4972.35       500      610      700      900      950      970     1000      129      960     1100   
                                          VAR    BASINP    GEOM    SYMINP    ZMAT    AOBASIS   BASIS     P2S    ABASIS      S 
                                         1400     1410     1200     1210     1080     1600     1650     1300     1700     1380   
                                           T        V       H0       H01     AOSYM     SMH    MOLCAS    ERIS     OPER     JKOP   

              2       4        1.98       700     1000      520     2100   
                                         GEOM     BASIS   MCVARS     RHF  

 PROGRAMS   *        TOTAL       MP4    HF-SCF       INT
 CPU TIMES  *      4299.27   4215.00     50.23     33.95
 REAL TIME  *      4451.29 SEC
 DISK USED  *        11.38 GB
 **********************************************************************************************************************************

 Dump information in style XML to xml output                                                                      

 Orbitals will not be exported.

 **********************************************************************************************************************************

 MP4/cc-pVTZ energy=   -626.119770120545

             MP4          HF-SCF
   -626.11977012   -624.80615843
 **********************************************************************************************************************************
 Molpro calculation terminated
