
 Working directory              : /var/folders/2v/xbgp75_9785319ghcgb4zr4r0000gr/T//molpro.2XoL5UUcrJ/
 Global scratch directory       : /var/folders/2v/xbgp75_9785319ghcgb4zr4r0000gr/T//molpro.2XoL5UUcrJ/
 Wavefunction directory         : /Users/peterk/wfu/
 Main file repository           : /var/folders/2v/xbgp75_9785319ghcgb4zr4r0000gr/T//molpro.2XoL5UUcrJ/

 id        : peterk

 Nodes        nprocs
 pjk2022.local    1
 GA implementation: MPI file
 GA implementation (serial work in mppx): MPI file

 Using customized tuning parameters: mindgm=1; mindgv=20; mindgc=4; mindgr=1; noblas=0; minvec=7
 default implementation of scratch files=df  


 Variables initialized (1037), CPU time= 0.00 sec
 
 
 
 geometry={
 14
    C   0.62527800830666      2.89809627957375     -0.03936045477419
    C   -0.34255388276270      1.73745370003310     -0.03150100176433
    N   0.36138843311159      0.47998433732143      0.01403975045456
    C   -0.22542645347882     -0.72812870820658      0.09515084552755
    N   -1.56562722239652     -0.73828988669266     -0.07257090139012
    S   0.64293020269652     -2.11955820431433      0.35396039167116
    H   -2.11587316489113      0.09765190100243     -0.03875317825241
    H   -2.02216029547534     -1.61654192112677      0.07076902579688
    H   1.34388428549199      0.47744786420014      0.21511755062804
    H   -0.96428971121995      1.77250469141176     -0.92748736392476
    H   -1.00987152277285      1.82684418928150      0.83109160294360
    H   1.29351690735313      2.84225750698511     -0.89453694539721
    H   0.07941403827619      3.83516192614587     -0.09217618418552
    H   1.22905937776120      2.90822932438525      0.86522986266675
 }
 basis=cc-pVTZ
 core,small
 
 
 hf; ccsd
 
 
 
 {put,xml;noorbitals,nobasis}
 Commands initialized (841), CPU time= 0.01 sec, 716 directives.
 Default parameters read. Elapsed time= 0.06 sec

 Checking input...
 Passed
1


                                         ***  PROGRAM SYSTEM MOLPRO  ***
                                       Copyright, TTI GmbH Stuttgart, 2015
                                    Version 2023.1 linked Sat Jul 22 07:59:25 2023


 **********************************************************************************************************************************
 LABEL *                                                                                                                                                                 
  64 bit serial version                                                                  DATE: 02-Aug-23          TIME: 09:11:53  
 **********************************************************************************************************************************

 SHA1:             401d111a1dbfa49388eacdf0424f85138b2d30d0
 **********************************************************************************************************************************

 Memory per process:      3146 MW
 Total memory per node:   4194 MW
 Total GA space:          1049 MW

 GA preallocation disabled
 GA check enabled

 Geometry recognized as XYZ


 Variable memory set to 3145.7 MW

 SETTING BASIS          =    CC-PVTZ


 Recomputing integrals since basis changed


 Using spherical harmonics

 Library entry C      S cc-pVTZ              selected for orbital group  1
 Library entry C      P cc-pVTZ              selected for orbital group  1
 Library entry C      D cc-pVTZ              selected for orbital group  1
 Library entry C      F cc-pVTZ              selected for orbital group  1
 Library entry N      S cc-pVTZ              selected for orbital group  2
 Library entry N      P cc-pVTZ              selected for orbital group  2
 Library entry N      D cc-pVTZ              selected for orbital group  2
 Library entry N      F cc-pVTZ              selected for orbital group  2
 Library entry S      S cc-pVTZ              selected for orbital group  5
 Library entry S      P cc-pVTZ              selected for orbital group  5
 Library entry S      D cc-pVTZ              selected for orbital group  5
 Library entry S      F cc-pVTZ              selected for orbital group  5
 Library entry H      S cc-pVTZ              selected for orbital group  6
 Library entry H      P cc-pVTZ              selected for orbital group  6
 Library entry H      D cc-pVTZ              selected for orbital group  6


 PROGRAM * SEWARD (Integral evaluation for generally contracted gaussian basis sets)     Author: Roland Lindh, 1990

 Geometry written to block  1 of record 700


 Point group  C1  



 ATOMIC COORDINATES

 NR  ATOM    CHARGE       X              Y              Z

   1  C       6.00    1.181604187    5.476608251   -0.074380480
   2  C       6.00   -0.647333021    3.283311647   -0.059528266
   3  N       7.00    0.682925163    0.907038942    0.026531283
   4  C       6.00   -0.425994258   -1.375963842    0.179809039
   5  N       7.00   -2.958606664   -1.395165686   -0.137139128
   6  S      16.00    1.214962000   -4.005384511    0.668888199
   7  H       1.00   -3.998420796    0.184535348   -0.073232893
   8  H       1.00   -3.821329139   -3.054821500    0.133734077
   9  H       1.00    2.539573243    0.902245702    0.406513255
  10  H       1.00   -1.822243459    3.349548421   -1.752697102
  11  H       1.00   -1.908380599    3.452235190    1.570535514
  12  H       1.00    2.444392692    5.371088264   -1.690429835
  13  H       1.00    0.150070783    7.247405684   -0.174187743
  14  H       1.00    2.322585615    5.495756931    1.635047475

 Bond lengths in Bohr (Angstrom)

  1- 2  2.855832960   1-12  2.053627229   1-13  2.051766605   1-14  2.055322170   2- 3  2.724640353
       ( 1.511241721)       ( 1.086732729)       ( 1.085748130)       ( 1.087629653)       ( 1.441817583)

  2-10  2.061946302   2-11  2.067821096   3- 4  2.542695039   3- 9  1.895138878   4- 5  2.552440097
       ( 1.091134993)       ( 1.094243800)       ( 1.345536269)       ( 1.002864306)       ( 1.350693131)

 4-6  3.137800014  5-7  1.892287715  5-8  1.890005233
     ( 1.660452260)     ( 1.001355535)     ( 1.000147698)

 Bond angles

  1- 2- 3  110.93444824   1- 2-10  109.63183291   1- 2-11  109.38517980   2- 1-12  111.00380871

  2- 1-13  109.94474000   2- 1-14  110.99891742   2- 3- 4  124.89286902   2- 3- 9  119.13409952

  3- 2-10  109.39937660   3- 2-11  110.12645060   3- 4- 5  115.59461765   3- 4- 6  122.25700367

  4-3-9  114.38741641   4-5-7  122.32754425   4-5-8  116.21426822   5-4-6  122.13744593

  7- 5- 8  118.51552963  10- 2-11  107.28927974  12- 1-13  108.37366584  12- 1-14  108.27715888

 13- 1-14  108.15046511

 NUCLEAR CHARGE:                   56
 NUMBER OF PRIMITIVE AOS:         435
 NUMBER OF SYMMETRY AOS:          397
 NUMBER OF CONTRACTIONS:          296   (  296A   )
 NUMBER OF INNER CORE ORBITALS:     1   (    1A   )
 NUMBER OF OUTER CORE ORBITALS:     9   (    9A   )
 NUMBER OF VALENCE ORBITALS:       32   (   32A   )


 NUCLEAR REPULSION ENERGY  293.41225290


 Eigenvalues of metric

         1 0.610E-03 0.692E-03 0.875E-03 0.939E-03 0.979E-03 0.126E-02 0.137E-02 0.146E-02


 Contracted 2-electron integrals neglected if value below      1.0D-11
 AO integral compression algorithm  1   Integral accuracy      1.0D-11

     2932.343 MB (compressed) written to integral file ( 37.1%)


 NUMBER OF SORTED TWO-ELECTRON INTEGRALS:  966086946.     BUFFER LENGTH:  32768
 NUMBER OF SEGMENTS:  61  SEGMENT LENGTH:   15999984      RECORD LENGTH: 262144

 Memory used in sort:      16.29 MW

 SORT1 READ   988937047. AND WROTE   766008916. INTEGRALS IN   4414 RECORDS. CPU TIME:     7.35 SEC, REAL TIME:     9.33 SEC
 SORT2 READ   766008916. AND WROTE   966086946. INTEGRALS IN  11186 RECORDS. CPU TIME:     4.92 SEC, REAL TIME:    21.12 SEC

 FILE SIZES:   FILE 1:  2965.8 MBYTE,  FILE 4:  9256.9 MBYTE,   TOTAL:  12222.7 MBYTE

 OPERATOR DM      FOR CENTER  0  COORDINATES:    0.000000    0.000000    0.000000


 **********************************************************************************************************************************
 DATASETS  * FILE   NREC   LENGTH (MB)   RECORD NAMES
              1      19     2601.60       500      610      700      900      950      970     1000      129      960     1100   
                                          VAR    BASINP    GEOM    SYMINP    ZMAT    AOBASIS   BASIS     P2S    ABASIS      S 
                                         1400     1410     1200     1210     1080     1600     1650     1300     1700   
                                           T        V       H0       H01     AOSYM     SMH    MOLCAS    ERIS     OPER   

 PROGRAMS   *        TOTAL       INT
 CPU TIMES  *        32.24     32.15
 REAL TIME  *        52.13 SEC
 DISK USED  *        11.38 GB
 **********************************************************************************************************************************


 Program * Restricted Hartree-Fock

 Orbital guess generated from atomic densities. Full valence occupancy:   42

 Initial occupancy:  28

 NELEC=   56   SYM=1   MS2= 0   THRE=1.0D-08   THRD=3.2D-06   THRG=3.2D-06  HFMA2=F  DIIS_START=2   DIIS_MAX=10   DIIS_INCORE=F

 Level shifts:    0.00 (CLOSED)    0.00 (OPEN)    0.30 (GAP_MIN)

 ITER           ETOT              DE          GRAD        DDIFF     DIIS  NEXP   TIME(IT)  TIME(TOT)  DIAG
   1     -624.70657131    -624.70657131     0.00D+00     0.48D-01     0     0       3.64      7.04    start
   2     -624.78667951      -0.08010820     0.31D-02     0.54D-02     1     0       3.67     10.71    diag
   3     -624.80319330      -0.01651379     0.14D-02     0.16D-02     2     0       3.74     14.45    diag
   4     -624.80587915      -0.00268585     0.51D-03     0.59D-03     3     0       3.72     18.17    diag
   5     -624.80611769      -0.00023854     0.12D-03     0.19D-03     4     0       3.73     21.90    diag
   6     -624.80615476      -0.00003707     0.41D-04     0.91D-04     5     0       3.74     25.64    diag
   7     -624.80615811      -0.00000335     0.12D-04     0.28D-04     6     0       3.85     29.49    diag
   8     -624.80615839      -0.00000028     0.38D-05     0.70D-05     7     0       3.91     33.40    fixocc
   9     -624.80615842      -0.00000004     0.12D-05     0.25D-05     8     0       3.78     37.18    diag
  10     -624.80615843      -0.00000001     0.50D-06     0.10D-05     9     0       3.77     40.95    diag/orth
  11     -624.80615843      -0.00000000     0.22D-06     0.39D-06     0     0       3.83     44.78    diag

 Final occupancy:  28

 !RHF STATE 1.1 Energy               -624.806158429971
  RHF One-electron energy           -1439.931948809541
  RHF Two-electron energy             521.713537482692
  RHF Kinetic energy                  624.663760423332
  RHF Nuclear energy                  293.412252896878
  RHF Virial quotient                  -1.000227959449

 !RHF STATE 1.1 Dipole moment          -1.16030659     2.19230833    -0.09124881
 Dipole moment /Debye                  -2.94920519     5.57229196    -0.23193134

 Orbital energies:

           1.1          2.1          3.1          4.1          5.1          6.1          7.1          8.1          9.1         10.1
    -91.870899   -15.595246   -15.594883   -11.366022   -11.288449   -11.242445    -8.876241    -6.557914    -6.555792    -6.555312

          11.1         12.1         13.1         14.1         15.1         16.1         17.1         18.1         19.1         20.1
     -1.317589    -1.209881    -1.058936    -0.963799    -0.871242    -0.826957    -0.746393    -0.685158    -0.673397    -0.647172

          21.1         22.1         23.1         24.1         25.1         26.1         27.1         28.1         29.1         30.1
     -0.574931    -0.570902    -0.542880    -0.520146    -0.494155    -0.420830    -0.313002    -0.311837     0.117159     0.139108


 HOMO     28.1    -0.311837 =      -8.4855eV
 LUMO     29.1     0.117159 =       3.1881eV
 LUMO-HOMO         0.428996 =      11.6736eV

 Orbitals saved in record  2100.2


 **********************************************************************************************************************************
 DATASETS  * FILE   NREC   LENGTH (MB)   RECORD NAMES
              1      19     2601.60       500      610      700      900      950      970     1000      129      960     1100   
                                          VAR    BASINP    GEOM    SYMINP    ZMAT    AOBASIS   BASIS     P2S    ABASIS      S 
                                         1400     1410     1200     1210     1080     1600     1650     1300     1700   
                                           T        V       H0       H01     AOSYM     SMH    MOLCAS    ERIS     OPER   

              2       4        1.98       700     1000      520     2100   
                                         GEOM     BASIS   MCVARS     RHF  

 PROGRAMS   *        TOTAL    HF-SCF       INT
 CPU TIMES  *        77.02     44.78     32.15
 REAL TIME  *       101.54 SEC
 DISK USED  *        11.38 GB
 **********************************************************************************************************************************


 PROGRAM * CCSD (Closed-shell coupled cluster)     Authors: C. Hampel, H.-J. Werner, 1991, M. Deegan, P.J. Knowles, 1992


 CORETYPE=SMALL

 Convergence thresholds:  THRVAR = 1.00D-08  THRDEN = 1.00D-06

 Number of core orbitals:           1 (   1 )
 Number of closed-shell orbitals:  27 (  27 )
 Number of external orbitals:     268 ( 268 )

 Molecular orbitals read from record     2100.2  Type=RHF/CANONICAL  

 Checking core orbitals using projection, core_type=SMALL
 Threshold for active space selection:  0.30


  Number of target functions:              1

 Number of N-1 electron functions:              27
 Number of N-2 electron functions:             378
 Number of singly external CSFs:              7236
 Number of doubly external CSFs:          26183466
 Total number of CSFs:                    26190703

 Length of J-op  integral file:               0.00 MB
 Length of K-op  integral file:               6.08 MB
 Length of 3-ext integral record:             0.00 MB

 Integral transformation finished. Total CPU:  42.33 sec, npass=  1  Memory used: 419.01 MW

 Reference energy:                   -624.80615843

 MP2 singlet pair energy:              -0.77479843
 MP2 triplet pair energy:              -0.43487474
 MP2 correlation energy:               -1.20967317
 MP2 total energy:                   -626.01583160

 SCS-MP2 correlation energy:           -1.20034684   (PS=  1.200000  PT=  0.333333)
 SCS-MP2 total energy:               -626.00650527

 ITER.      SQ.NORM     CORR.ENERGY   TOTAL ENERGY   ENERGY CHANGE        DEN1      VAR(S)    VAR(P)  DIIS     TIME  TIME/IT
   1      1.36505205    -1.25273689  -626.05889532    -0.04306372    -0.01335321  0.61D-02  0.59D-02  1  1   290.69   166.44
   2      1.38916264    -1.25567777  -626.06183620    -0.00294088    -0.02639964  0.14D-03  0.79D-03  2  2   467.58   172.26
   3      1.39806834    -1.25589319  -626.06205162    -0.00021543    -0.00449842  0.15D-03  0.42D-04  3  3   650.17   176.53
   4      1.40184550    -1.25582318  -626.06198161     0.00007001    -0.00147582  0.20D-04  0.71D-05  4  4   798.67   173.59
   5      1.40348769    -1.25583169  -626.06199012    -0.00000852    -0.00032820  0.53D-05  0.81D-06  5  5   956.12   169.87
   6      1.40406314    -1.25580580  -626.06196423     0.00002590    -0.00004628  0.66D-06  0.20D-06  6  6  1137.70   171.62
   7      1.40425609    -1.25579615  -626.06195458     0.00000964    -0.00001735  0.21D-06  0.34D-07  6  2  1325.14   173.85
   8      1.40431058    -1.25579384  -626.06195227     0.00000232    -0.00000484  0.45D-07  0.97D-08  6  1  1507.15   174.90
   9      1.40433006    -1.25579363  -626.06195206     0.00000021     0.00000323  0.79D-08  0.22D-08  6  4  1694.99   176.37
  10      1.40433602    -1.25579424  -626.06195267    -0.00000060    -0.00000143  0.96D-09  0.29D-09  6  3  1896.47   178.67

 Norm of t1 vector:      0.11707037      S-energy:     0.00000087      T1 diagnostic:  0.01126510
                                                                       D1 diagnostic:  0.06406960
                                                                       D2 diagnostic:  0.16560801 (internal)


 RESULTS
 =======

  Reference energy                   -624.806158429970

  Correlated core orbitals:             2.1       3.1       4.1       5.1       6.1       7.1       8.1       9.1      10.1
  Orbital energies:                   -15.5953  -15.5949  -11.3660  -11.2885  -11.2424   -8.8762   -6.5579   -6.5558   -6.5553

  CCSD core-core energy                -0.071025733947
  CCSD core-valence energy             -0.045532469748
  CCSD valence correlation energy      -1.139236032674

  CCSD singlet pair energy             -0.856059379759
  CCSD triplet pair energy             -0.399735721934
  CCSD correlation energy              -1.255794236369

 !CCSD total energy                  -626.061952666339

 Timing summary (sec):

 STEP                 CPU(USER)    SYS     CPU(TOT)    WALL
 Transformation         43.68      7.43     51.11     47.69
 CCSD iterations      1854.18     79.44   1933.62   1788.32

 Program statistics:

 Available memory in ccsd:              3145725056
 Min. memory needed in ccsd:              60698883
 Max. memory used in ccsd:                85489959
 Max. memory used in cckext:              67521171 (10 integral passes)



 **********************************************************************************************************************************
 DATASETS  * FILE   NREC   LENGTH (MB)   RECORD NAMES
              1      20     4972.35       500      610      700      900      950      970     1000      129      960     1100   
                                          VAR    BASINP    GEOM    SYMINP    ZMAT    AOBASIS   BASIS     P2S    ABASIS      S 
                                         1400     1410     1200     1210     1080     1600     1650     1300     1700     1380   
                                           T        V       H0       H01     AOSYM     SMH    MOLCAS    ERIS     OPER     JKOP   

              2       4        1.98       700     1000      520     2100   
                                         GEOM     BASIS   MCVARS     RHF  

 PROGRAMS   *        TOTAL      CCSD    HF-SCF       INT
 CPU TIMES  *      1897.78   1820.75     44.78     32.15
 REAL TIME  *      1937.85 SEC
 DISK USED  *        11.38 GB
 **********************************************************************************************************************************

 Dump information in style XML to xml output                                                                      

 Orbitals will not be exported.

 **********************************************************************************************************************************

 CCSD/cc-pVTZ energy=   -626.061952666339

            CCSD          HF-SCF
   -626.06195267   -624.80615843
 **********************************************************************************************************************************
 Molpro calculation terminated
