
 Working directory              : /var/folders/2v/xbgp75_9785319ghcgb4zr4r0000gr/T//molpro.11sK36UPaX/
 Global scratch directory       : /var/folders/2v/xbgp75_9785319ghcgb4zr4r0000gr/T//molpro.11sK36UPaX/
 Wavefunction directory         : /Users/peterk/wfu/
 Main file repository           : /var/folders/2v/xbgp75_9785319ghcgb4zr4r0000gr/T//molpro.11sK36UPaX/

 id        : peterk

 Nodes        nprocs
 pjk2022.local    1
 GA implementation: MPI file
 GA implementation (serial work in mppx): MPI file

 Using customized tuning parameters: mindgm=1; mindgv=20; mindgc=4; mindgr=1; noblas=0; minvec=7
 default implementation of scratch files=df  


 Variables initialized (1037), CPU time= 0.00 sec
 
 
 
 geometry={
 14
    S   0.66677564042217      2.05437369372826      0.14977685320868
    N   -1.62081432833388      0.80292358760807     -0.02554570859412
    N   0.24495718218741     -0.52424926464673     -0.47133129537914
    C   -0.28033596794244      0.75225082307584     -0.12048620095292
    H   -2.18417445531290     -0.02032755647558     -0.11685858131604
    H   -2.05472923451931      1.65770956972555      0.26621960191335
    H   -0.02818719149709     -0.76360303086743     -1.41523482766293
    C   -0.07866698938617     -1.59927786046656      0.45900259148440
    C   0.51260491184855     -2.90920938509984     -0.01005743723088
    H   0.34555462453577     -1.32170941543592      1.42179560735136
    H   -1.15768883356433     -1.73007712243441      0.61658654065119
    H   1.59476390318716     -2.85060081564529     -0.07180519069143
    H   0.24448098693695     -3.70870853294791      0.67442803809034
    H   0.12764975143810     -3.17768469011805     -0.99299999087185
 }
 basis=cc-pVDZ
 core,small
 
 
 hf; papt;mp3
 
 
 
 {put,xml;noorbitals,nobasis}
 Commands initialized (841), CPU time= 0.01 sec, 716 directives.
 Default parameters read. Elapsed time= 0.05 sec

 Checking input...
 Passed
1


                                         ***  PROGRAM SYSTEM MOLPRO  ***
                                       Copyright, TTI GmbH Stuttgart, 2015
                                    Version 2023.1 linked Sat Jul 22 07:59:25 2023


 **********************************************************************************************************************************
 LABEL *                                                                                                                                                                 
  64 bit serial version                                                                  DATE: 01-Aug-23          TIME: 22:15:45  
 **********************************************************************************************************************************

 SHA1:             401d111a1dbfa49388eacdf0424f85138b2d30d0
 **********************************************************************************************************************************

 Memory per process:      3146 MW
 Total memory per node:   4194 MW
 Total GA space:          1049 MW

 GA preallocation disabled
 GA check enabled

 Geometry recognized as XYZ


 Variable memory set to 3145.7 MW

 SETTING BASIS          =    CC-PVDZ


 Recomputing integrals since basis changed


 Using spherical harmonics

 Library entry S      S cc-pVDZ              selected for orbital group  1
 Library entry S      P cc-pVDZ              selected for orbital group  1
 Library entry S      D cc-pVDZ              selected for orbital group  1
 Library entry N      S cc-pVDZ              selected for orbital group  2
 Library entry N      P cc-pVDZ              selected for orbital group  2
 Library entry N      D cc-pVDZ              selected for orbital group  2
 Library entry C      S cc-pVDZ              selected for orbital group  3
 Library entry C      P cc-pVDZ              selected for orbital group  3
 Library entry C      D cc-pVDZ              selected for orbital group  3
 Library entry H      S cc-pVDZ              selected for orbital group  4
 Library entry H      P cc-pVDZ              selected for orbital group  4


 PROGRAM * SEWARD (Integral evaluation for generally contracted gaussian basis sets)     Author: Roland Lindh, 1990

 Geometry written to block  1 of record 700


 Point group  C1  



 ATOMIC COORDINATES

 NR  ATOM    CHARGE       X              Y              Z

   1  S      16.00    1.260023347    3.882203639    0.283037232
   2  N       7.00   -3.062895179    1.517305680   -0.048274393
   3  N       7.00    0.462901987   -0.990687531   -0.890687062
   4  C       6.00   -0.529758202    1.421548033   -0.227685922
   5  H       1.00   -4.127491529   -0.038413515   -0.220830714
   6  H       1.00   -3.882875514    3.132617081    0.503082137
   7  H       1.00   -0.053266072   -1.443000596   -2.674406226
   8  C       6.00   -0.148659065   -3.022197153    0.867389188
   9  C       6.00    0.968682894   -5.497608977   -0.019005802
  10  H       1.00    0.653003601   -2.497668812    2.686804303
  11  H       1.00   -2.187714833   -3.269371936    1.165179694
  12  H       1.00    3.013667010   -5.386854832   -0.135692145
  13  H       1.00    0.462002108   -7.008443403    1.274484283
  14  H       1.00    0.241223070   -6.004953775   -1.876498025

 Bond lengths in Bohr (Angstrom)

 1-4  3.085284776  2-4  2.541287266  2-5  1.892987924  2-6  1.893566131  3-4  2.691435524
     ( 1.632662392)     ( 1.344791308)     ( 1.001726070)     ( 1.002032044)     ( 1.424246344)

  3- 7  1.911196125   3- 8  2.755334892   8- 9  2.856888662   8-10  2.056225759   8-11  2.075457295
       ( 1.011361435)       ( 1.458060433)       ( 1.511800374)       ( 1.088107812)       ( 1.098284703)

  9-12  2.051302567   9-13  2.052428484   9-14  2.058366803
       ( 1.085502571)       ( 1.086098381)       ( 1.089240804)

 Bond angles

  1-4-2  122.44592397   1-4-3  122.79495239   2-4-3  114.75897312   3-8-9  110.73663366

  3- 8-10  106.85583415   3- 8-11  113.41704826   4- 2- 5  121.54600374   4- 2- 6  118.96965253

  4-3-7  110.02382613   4-3-8  114.94669489   5-2-6  118.95183468   7-3-8  111.16567019

  8- 9-12  111.14726826   8- 9-13  110.22688563   8- 9-14  110.81378384   9- 8-10  110.06485234

  9- 8-11  109.00015869  10- 8-11  106.64587772  12- 9-13  108.76593910  12- 9-14  108.31871862

 13- 9-14  107.45971685

 NUCLEAR CHARGE:                   56
 NUMBER OF PRIMITIVE AOS:         233
 NUMBER OF SYMMETRY AOS:          227
 NUMBER OF CONTRACTIONS:          128   (  128A   )
 NUMBER OF INNER CORE ORBITALS:     1   (    1A   )
 NUMBER OF OUTER CORE ORBITALS:     9   (    9A   )
 NUMBER OF VALENCE ORBITALS:       32   (   32A   )


 NUCLEAR REPULSION ENERGY  292.83857889


 Eigenvalues of metric

         1 0.282E-02 0.398E-02 0.473E-02 0.572E-02 0.872E-02 0.176E-01 0.207E-01 0.226E-01


 Contracted 2-electron integrals neglected if value below      1.0D-11
 AO integral compression algorithm  1   Integral accuracy      1.0D-11

     133.169 MB (compressed) written to integral file ( 46.3%)


 NUMBER OF SORTED TWO-ELECTRON INTEGRALS:   34084896.     BUFFER LENGTH:  32768
 NUMBER OF SEGMENTS:   3  SEGMENT LENGTH:   15998004      RECORD LENGTH: 524288

 Memory used in sort:      16.56 MW

 SORT1 READ    35965961. AND WROTE    31384103. INTEGRALS IN     91 RECORDS. CPU TIME:     0.27 SEC, REAL TIME:     0.33 SEC
 SORT2 READ    31384103. AND WROTE    34084896. INTEGRALS IN    508 RECORDS. CPU TIME:     0.28 SEC, REAL TIME:     0.34 SEC

 FILE SIZES:   FILE 1:   164.0 MBYTE,  FILE 4:   381.7 MBYTE,   TOTAL:    545.8 MBYTE

 OPERATOR DM      FOR CENTER  0  COORDINATES:    0.000000    0.000000    0.000000


 **********************************************************************************************************************************
 DATASETS  * FILE   NREC   LENGTH (MB)   RECORD NAMES
              1      19      143.09       500      610      700      900      950      970     1000      129      960     1100   
                                          VAR    BASINP    GEOM    SYMINP    ZMAT    AOBASIS   BASIS     P2S    ABASIS      S 
                                         1400     1410     1200     1210     1080     1600     1650     1300     1700   
                                           T        V       H0       H01     AOSYM     SMH    MOLCAS    ERIS     OPER   

 PROGRAMS   *        TOTAL       INT
 CPU TIMES  *         2.21      2.11
 REAL TIME  *         2.93 SEC
 DISK USED  *       521.04 MB
 **********************************************************************************************************************************


 Program * Restricted Hartree-Fock

 Orbital guess generated from atomic densities. Full valence occupancy:   42

 Initial occupancy:  28

 NELEC=   56   SYM=1   MS2= 0   THRE=1.0D-08   THRD=3.2D-06   THRG=3.2D-06  HFMA2=F  DIIS_START=2   DIIS_MAX=10   DIIS_INCORE=F

 Level shifts:    0.00 (CLOSED)    0.00 (OPEN)    0.30 (GAP_MIN)

 ITER           ETOT              DE          GRAD        DDIFF     DIIS  NEXP   TIME(IT)  TIME(TOT)  DIAG
   1     -624.58695523    -624.58695523     0.00D+00     0.11D+00     0     0       0.15      0.29    start
   2     -624.66806814      -0.08111290     0.52D-02     0.15D-01     1     0       0.15      0.44    diag
   3     -624.69031227      -0.02224413     0.28D-02     0.53D-02     2     0       0.15      0.59    diag
   4     -624.69294418      -0.00263191     0.82D-03     0.17D-02     3     0       0.15      0.74    diag
   5     -624.69315362      -0.00020943     0.19D-03     0.48D-03     4     0       0.15      0.89    diag
   6     -624.69317891      -0.00002529     0.60D-04     0.18D-03     5     0       0.15      1.04    diag
   7     -624.69318216      -0.00000326     0.22D-04     0.62D-04     6     0       0.15      1.19    diag
   8     -624.69318250      -0.00000034     0.68D-05     0.22D-04     7     0       0.15      1.34    fixocc
   9     -624.69318252      -0.00000002     0.16D-05     0.46D-05     8     0       0.15      1.49    diag
  10     -624.69318253      -0.00000000     0.60D-06     0.17D-05     9     0       0.15      1.64    diag/orth
  11     -624.69318253      -0.00000000     0.18D-06     0.50D-06     0     0       0.15      1.79    diag

 Final occupancy:  28

 !RHF STATE 1.1 Energy               -624.693182525422
  RHF One-electron energy           -1438.870747013440
  RHF Two-electron energy             521.338985600028
  RHF Kinetic energy                  624.625122177019
  RHF Nuclear energy                  292.838578887989
  RHF Virial quotient                  -1.000108961913

 !RHF STATE 1.1 Dipole moment          -1.68820120    -1.45736040    -0.15358906
 Dipole moment /Debye                  -4.29097943    -3.70424066    -0.39038446

 Orbital energies:

           1.1          2.1          3.1          4.1          5.1          6.1          7.1          8.1          9.1         10.1
    -91.886871   -15.607806   -15.569606   -11.370061   -11.274759   -11.233812    -8.892195    -6.574526    -6.571781    -6.570295

          11.1         12.1         13.1         14.1         15.1         16.1         17.1         18.1         19.1         20.1
     -1.301179    -1.197606    -1.034671    -0.975549    -0.854811    -0.799994    -0.740897    -0.697084    -0.652424    -0.618101

          21.1         22.1         23.1         24.1         25.1         26.1         27.1         28.1         29.1         30.1
     -0.560714    -0.535205    -0.518782    -0.511419    -0.496465    -0.403761    -0.330373    -0.315634     0.121843     0.156582


 HOMO     28.1    -0.315634 =      -8.5888eV
 LUMO     29.1     0.121843 =       3.3155eV
 LUMO-HOMO         0.437477 =      11.9043eV

 Orbitals saved in record  2100.2


 **********************************************************************************************************************************
 DATASETS  * FILE   NREC   LENGTH (MB)   RECORD NAMES
              1      19      143.09       500      610      700      900      950      970     1000      129      960     1100   
                                          VAR    BASINP    GEOM    SYMINP    ZMAT    AOBASIS   BASIS     P2S    ABASIS      S 
                                         1400     1410     1200     1210     1080     1600     1650     1300     1700   
                                           T        V       H0       H01     AOSYM     SMH    MOLCAS    ERIS     OPER   

              2       4        0.86       700     1000      520     2100   
                                         GEOM     BASIS   MCVARS     RHF  

 PROGRAMS   *        TOTAL    HF-SCF       INT
 CPU TIMES  *         4.00      1.78      2.11
 REAL TIME  *         4.86 SEC
 DISK USED  *       521.04 MB
 **********************************************************************************************************************************


 PROGRAM * PAPT (Closed-shell)     Authors: C. Hampel, H.-J. Werner, 1991, P.J. Knowles, 2021


 CORETYPE=SMALL

 Convergence thresholds:  THRVAR = 1.00D-08  THRDEN = 1.00D-06

 Number of core orbitals:           1 (   1 )
 Number of closed-shell orbitals:  27 (  27 )
 Number of external orbitals:     100 ( 100 )

 Molecular orbitals read from record     2100.2  Type=RHF/CANONICAL  

 Checking core orbitals using projection, core_type=SMALL
 Threshold for active space selection:  0.30


  Number of target functions:              1

 Number of N-1 electron functions:              27
 Number of N-2 electron functions:             378
 Number of singly external CSFs:              2700
 Number of doubly external CSFs:           3646350
 Total number of CSFs:                     3649051

 Length of J-op  integral file:               0.00 MB
 Length of K-op  integral file:               1.19 MB

 Integral transformation finished. Total CPU:   0.85 sec, npass=  1  Memory used:  10.24 MW

 Reference energy:                   -624.69318253

                        CORR.ENERGY   TOTAL ENERGY   ENERGY CHANGE
 MP2:                   -0.90427585  -625.59745838    -0.90427585

 SCS-MP2 correlation energy:           -0.88603285   (PS=  1.200000  PT=  0.333333)
 SCS-MP2 total energy:               -625.57921538
 Iteration:   1     0.2134D+00
 Iteration:   2     0.5230D+00
 Iteration:   3     0.8520D-01
 Iteration:   4     0.2149D+00
 Iteration:   5     0.3436D-01
 Iteration:   6     0.9304D-01
 Iteration:   7     0.1962D-01
 Iteration:   8     0.7974D-01
 Iteration:   9     0.1329D-01
 Iteration:  10     0.1338D-01
 Iteration:  11     0.1241D-01
 Iteration:  12     0.5004D-02
 Iteration:  13     0.8705D-01
 Iteration:  14     0.2708D-02
 Iteration:  15     0.4941D-02
 Iteration:  16     0.1409D-02
 Iteration:  17     0.1412D-02
 Iteration:  18     0.1628D-02
 Iteration:  19     0.6519D-03
 Iteration:  20     0.1453D-02
 Iteration:  21     0.4135D-03
 Iteration:  22     0.4488D-03
 Iteration:  23     0.2572D-03
 Iteration:  24     0.2117D-03
 Iteration:  25     0.7653D-04
 PAPT operator written to  7000.1
 PAPT orbitals and eigenvalues written to  7000.2

 MP3(D):                -0.95067356  -625.64385608    -0.04639771



 RESULTS
 =======

  Reference energy                   -624.693182525423

  Correlated core orbitals:             2.1       3.1       4.1       5.1       6.1       7.1       8.1       9.1      10.1
  Orbital energies:                   -15.6078  -15.5696  -11.3701  -11.2748  -11.2338   -8.8922   -6.5745   -6.5718   -6.5703

  MP3 core-core energy                 -0.006859340080
  MP3 core-valence energy              -0.012746098252
  MP3 valence correlation energy       -0.931068120732

  MP3 singlet pair energy              -0.626555817587
  MP3 triplet pair energy              -0.324117741476
  MP3 correlation energy               -0.950673559064

 !MP3 total energy                   -625.643856084487

 Timing summary (sec):

 STEP                 CPU(USER)    SYS     CPU(TOT)    WALL
 Transformation          0.95      0.06      1.01      1.01
 CCSD iterations        36.17      0.19     36.36     32.36

 Program statistics:

 Available memory in ccsd:              3145725056
 Min. memory needed in ccsd:               9487275
 Max. memory used in ccsd:                12827607
 Max. memory used in cckext:              12789552 ( 1 integral passes)



 **********************************************************************************************************************************
 DATASETS  * FILE   NREC   LENGTH (MB)   RECORD NAMES
              1      21      214.47       500      610      700      900      950      970     1000      129      960     1100   
                                          VAR    BASINP    GEOM    SYMINP    ZMAT    AOBASIS   BASIS     P2S    ABASIS      S 
                                         1400     1410     1200     1210     1080     1600     1650     1300     1700     1380   
                                           T        V       H0       H01     AOSYM     SMH    MOLCAS    ERIS     OPER     JKOP   
                                         7000   
                                        PAPT AO    

              2       5        1.33       700     1000      520     2100     7000   
                                         GEOM     BASIS   MCVARS     RHF     PAPT   

 PROGRAMS   *        TOTAL      PAPT    HF-SCF       INT
 CPU TIMES  *        37.04     33.05      1.78      2.11
 REAL TIME  *        38.26 SEC
 DISK USED  *       521.04 MB
 **********************************************************************************************************************************


 PROGRAM * MP3 (Closed-shell)     Authors: C. Hampel, H.-J. Werner, 1991, M. Deegan, P.J. Knowles, 1992


 CORETYPE=SMALL

 Convergence thresholds:  THRVAR = 1.00D-08  THRDEN = 1.00D-06

 Number of core orbitals:           1 (   1 )
 Number of closed-shell orbitals:  27 (  27 )
 Number of external orbitals:     100 ( 100 )

 Molecular orbitals read from record     7000.2  Type=PAPT/CANONICAL (state 1.1)

 Checking core orbitals using projection, core_type=SMALL
 Threshold for active space selection:  0.30


  Number of target functions:              1

 Number of N-1 electron functions:              27
 Number of N-2 electron functions:             378
 Number of singly external CSFs:              2700
 Number of doubly external CSFs:           3646350
 Total number of CSFs:                     3649051

 Length of J-op  integral file:               0.00 MB
 Length of K-op  integral file:               1.19 MB

 Integral transformation finished. Total CPU:   0.76 sec, npass=  1  Memory used:  10.24 MW
 Orbital energies read from record       7000.2  Type=PAPT/CANONICAL (state 1.1)

 Reference energy:                   -624.69318253

                        CORR.ENERGY   TOTAL ENERGY   ENERGY CHANGE
 MP2:                   -0.96025305  -625.65343557    -0.96025305

 SCS-MP2 correlation energy:           -0.94654748   (PS=  1.200000  PT=  0.333333)
 SCS-MP2 total energy:               -625.63973000

 MP3(D):                -0.96073589  -625.65391841    -0.00048284



 RESULTS
 =======

  Reference energy                   -624.693182525424

  Correlated core orbitals:             2.1       3.1       4.1       5.1       6.1       7.1       8.1       9.1      10.1
  Orbital energies:                   -15.9950  -16.0297  -11.4903  -11.3700  -11.3055   -9.4361   -6.9143   -7.0237   -7.0919

  MP3 core-core energy                 -0.006842708519
  MP3 core-valence energy              -0.012582232719
  MP3 valence correlation energy       -0.941310946547

  MP3 singlet pair energy              -0.637891218513
  MP3 triplet pair energy              -0.322844669272
  MP3 correlation energy               -0.960735887785

 !MP3 total energy                   -625.653918413208

 Timing summary (sec):

 STEP                 CPU(USER)    SYS     CPU(TOT)    WALL
 Transformation          1.07      0.10      1.17      1.20
 CCSD iterations        45.44      0.07     45.51      8.39

 Program statistics:

 Available memory in ccsd:              3145725056
 Min. memory needed in ccsd:               9487275
 Max. memory used in ccsd:                12827607
 Max. memory used in cckext:              12789552 ( 1 integral passes)



 **********************************************************************************************************************************
 DATASETS  * FILE   NREC   LENGTH (MB)   RECORD NAMES
              1      21      214.47       500      610      700      900      950      970     1000      129      960     1100   
                                          VAR    BASINP    GEOM    SYMINP    ZMAT    AOBASIS   BASIS     P2S    ABASIS      S 
                                         1400     1410     1200     1210     1080     1600     1650     1300     1700     1380   
                                           T        V       H0       H01     AOSYM     SMH    MOLCAS    ERIS     OPER     JKOP   
                                         7000   
                                        PAPT AO    

              2       5        1.33       700     1000      520     2100     7000   
                                         GEOM     BASIS   MCVARS     RHF     PAPT   

 PROGRAMS   *        TOTAL       MP3      PAPT    HF-SCF       INT
 CPU TIMES  *        46.43      9.39     33.05      1.78      2.11
 REAL TIME  *        47.89 SEC
 DISK USED  *       521.04 MB
 **********************************************************************************************************************************

 Dump information in style XML to xml output                                                                      

 Orbitals will not be exported.

 **********************************************************************************************************************************

 MP3/cc-pVDZ energy=   -625.653918413208

             MP3            PAPT          HF-SCF
   -625.65391841   -625.64385608   -624.69318253
 **********************************************************************************************************************************
 Molpro calculation terminated
