
 Working directory              : /var/folders/2v/xbgp75_9785319ghcgb4zr4r0000gr/T//molpro.bvDu8AQGYt/
 Global scratch directory       : /var/folders/2v/xbgp75_9785319ghcgb4zr4r0000gr/T//molpro.bvDu8AQGYt/
 Wavefunction directory         : /Users/peterk/wfu/
 Main file repository           : /var/folders/2v/xbgp75_9785319ghcgb4zr4r0000gr/T//molpro.bvDu8AQGYt/

 id        : peterk

 Nodes        nprocs
 pjk2022.local    1
 GA implementation: MPI file
 GA implementation (serial work in mppx): MPI file

 Using customized tuning parameters: mindgm=1; mindgv=20; mindgc=4; mindgr=1; noblas=0; minvec=7
 default implementation of scratch files=df  


 Variables initialized (1037), CPU time= 0.00 sec
 
 
 
 geometry={
 6
  N     0.0507550    0.7066917   -0.2218809
  N    -0.0507550   -0.7066917   -0.2218809
  H     0.8523830   -1.0838766   -0.4577758
  H    -0.3235893   -1.0740537    0.6796527
  H    -0.8523830    1.0838766   -0.4577758
  H     0.3235893    1.0740537    0.6796527
 }
 basis=cc-pVTZ
 core,small
 
 
 hf; ccsd
 
 
 
 {put,xml;noorbitals,nobasis}
 Commands initialized (841), CPU time= 0.00 sec, 716 directives.
 Default parameters read. Elapsed time= 0.07 sec

 Checking input...
 Passed
1


                                         ***  PROGRAM SYSTEM MOLPRO  ***
                                       Copyright, TTI GmbH Stuttgart, 2015
                                    Version 2023.1 linked Sat Jul 22 07:59:25 2023


 **********************************************************************************************************************************
 LABEL *                                                                                                                                                                 
  64 bit serial version                                                                  DATE: 02-Aug-23          TIME: 10:13:11  
 **********************************************************************************************************************************

 SHA1:             401d111a1dbfa49388eacdf0424f85138b2d30d0
 **********************************************************************************************************************************

 Memory per process:      3146 MW
 Total memory per node:   4194 MW
 Total GA space:          1049 MW

 GA preallocation disabled
 GA check enabled

 Geometry recognized as XYZ


 Variable memory set to 3145.7 MW

 SETTING BASIS          =    CC-PVTZ


 Recomputing integrals since basis changed


 Using spherical harmonics

 Library entry N      S cc-pVTZ              selected for orbital group  1
 Library entry N      P cc-pVTZ              selected for orbital group  1
 Library entry N      D cc-pVTZ              selected for orbital group  1
 Library entry N      F cc-pVTZ              selected for orbital group  1
 Library entry H      S cc-pVTZ              selected for orbital group  2
 Library entry H      P cc-pVTZ              selected for orbital group  2
 Library entry H      D cc-pVTZ              selected for orbital group  2


 PROGRAM * SEWARD (Integral evaluation for generally contracted gaussian basis sets)     Author: Roland Lindh, 1990

 Geometry written to block  1 of record 700


 Point group  C2  



 ATOMIC COORDINATES

 NR  ATOM    CHARGE       X              Y              Z

   1  N       7.00    0.095913049    1.335453768   -0.419294133
   2  N       7.00   -0.095913049   -1.335453768   -0.419294133
   3  H       1.00    1.610770423   -2.048229927   -0.865070888
   4  H       1.00   -1.610770423    2.048229927   -0.865070888
   5  H       1.00   -0.611495154   -2.029667336    1.284357463
   6  H       1.00    0.611495154    2.029667336    1.284357463

 Bond lengths in Bohr (Angstrom)

 1-2  2.677787205  1-4  1.902507620  1-6  1.910546034  2-3  1.902507620  2-5  1.910546034
     ( 1.417023964)     ( 1.006763676)     ( 1.011017421)     ( 1.006763676)     ( 1.011017421)

 Bond angles

  1-2-3  108.02462730   1-2-5  112.44255668   2-1-4  108.02462730   2-1-6  112.44255668

  3-2-5  108.35406944   4-1-6  108.35406944

 NUCLEAR CHARGE:                   18
 NUMBER OF PRIMITIVE AOS:         162
 NUMBER OF SYMMETRY AOS:          148
 NUMBER OF CONTRACTIONS:          116   (   58A   +   58B   )
 NUMBER OF INNER CORE ORBITALS:     0   (    0A   +    0B   )
 NUMBER OF OUTER CORE ORBITALS:     2   (    1A   +    1B   )
 NUMBER OF VALENCE ORBITALS:       12   (    6A   +    6B   )


 NUCLEAR REPULSION ENERGY   41.88127993

 Eigenvalues of metric

         1 0.181E-02 0.394E-02 0.461E-02 0.874E-02 0.124E-01 0.302E-01 0.327E-01 0.391E-01
         2 0.120E-02 0.264E-02 0.284E-02 0.602E-02 0.772E-02 0.916E-02 0.255E-01 0.317E-01


 Contracted 2-electron integrals neglected if value below      1.0D-11
 AO integral compression algorithm  1   Integral accuracy      1.0D-11

     66.322 MB (compressed) written to integral file ( 52.6%)


 NUMBER OF SORTED TWO-ELECTRON INTEGRALS:   11711795.     BUFFER LENGTH:  32768
 NUMBER OF SEGMENTS:   1  SEGMENT LENGTH:   11711795      RECORD LENGTH: 524288

 Memory used in sort:      12.27 MW

 SORT1 READ    15778528. AND WROTE    11246195. INTEGRALS IN     33 RECORDS. CPU TIME:     0.09 SEC, REAL TIME:     0.13 SEC
 SORT2 READ    11246195. AND WROTE    11711795. INTEGRALS IN    253 RECORDS. CPU TIME:     0.13 SEC, REAL TIME:     0.16 SEC

 FILE SIZES:   FILE 1:    96.7 MBYTE,  FILE 4:   138.5 MBYTE,   TOTAL:    235.2 MBYTE

 OPERATOR DM      FOR CENTER  0  COORDINATES:    0.000000    0.000000    0.000000


 **********************************************************************************************************************************
 DATASETS  * FILE   NREC   LENGTH (MB)   RECORD NAMES
              1      19       77.52       500      610      700      900      950      970     1000      129      960     1100   
                                          VAR    BASINP    GEOM    SYMINP    ZMAT    AOBASIS   BASIS     P2S    ABASIS      S 
                                         1400     1410     1200     1210     1080     1600     1650     1300     1700   
                                           T        V       H0       H01     AOSYM     SMH    MOLCAS    ERIS     OPER   

 PROGRAMS   *        TOTAL       INT
 CPU TIMES  *         1.13      1.04
 REAL TIME  *         1.84 SEC
 DISK USED  *       224.75 MB
 **********************************************************************************************************************************


 Program * Restricted Hartree-Fock

 Orbital guess generated from atomic densities. Full valence occupancy:    7   7

 Initial occupancy:   5   4

 NELEC=   18   SYM=1   MS2= 0   THRE=1.0D-08   THRD=3.2D-06   THRG=3.2D-06  HFMA2=F  DIIS_START=2   DIIS_MAX=10   DIIS_INCORE=F

 Level shifts:    0.00 (CLOSED)    0.00 (OPEN)    0.30 (GAP_MIN)

 ITER           ETOT              DE          GRAD        DDIFF     DIIS  NEXP   TIME(IT)  TIME(TOT)  DIAG
   1     -111.19793871    -111.19793871     0.00D+00     0.99D-01     0     0       0.04      0.06    start
   2     -111.22241247      -0.02447377     0.74D-02     0.10D-01     1     0       0.02      0.08    diag
   3     -111.22455758      -0.00214511     0.23D-02     0.24D-02     2     0       0.04      0.12    diag
   4     -111.22485700      -0.00029942     0.76D-03     0.82D-03     3     0       0.03      0.15    diag
   5     -111.22487902      -0.00002203     0.17D-03     0.20D-03     4     0       0.03      0.18    diag
   6     -111.22488042      -0.00000140     0.34D-04     0.58D-04     5     0       0.03      0.21    diag
   7     -111.22488054      -0.00000012     0.83D-05     0.19D-04     6     0       0.03      0.24    diag
   8     -111.22488055      -0.00000001     0.24D-05     0.57D-05     7     0       0.03      0.27    fixocc
   9     -111.22488055      -0.00000000     0.49D-06     0.14D-05     8     0       0.03      0.30    diag
  10     -111.22488055      -0.00000000     0.83D-07     0.18D-06     0     0       0.03      0.33    diag/orth

 Final occupancy:   5   4

 !RHF STATE 1.1 Energy               -111.224880550748
  RHF One-electron energy            -233.912497223044
  RHF Two-electron energy              80.806336739878
  RHF Kinetic energy                  111.114480219468
  RHF Nuclear energy                   41.881279932417
  RHF Virial quotient                  -1.000993572854

 !RHF STATE 1.1 Dipole moment           0.00000000     0.00000000     0.78405211
 Dipole moment /Debye                   0.00000000     0.00000000     1.99286168

 Orbital energies:

           1.1          2.1          3.1          4.1          5.1          6.1          7.1
    -15.561135    -1.256252    -0.675945    -0.608220    -0.405689     0.141386     0.213558

           1.2          2.2          3.2          4.2          5.2          6.2
    -15.560653    -1.005673    -0.667552    -0.408794     0.171116     0.214536


 HOMO      5.1    -0.405689 =     -11.0394eV
 LUMO      6.1     0.141386 =       3.8473eV
 LUMO-HOMO         0.547074 =      14.8867eV

 Orbitals saved in record  2100.2


 **********************************************************************************************************************************
 DATASETS  * FILE   NREC   LENGTH (MB)   RECORD NAMES
              1      19       77.52       500      610      700      900      950      970     1000      129      960     1100   
                                          VAR    BASINP    GEOM    SYMINP    ZMAT    AOBASIS   BASIS     P2S    ABASIS      S 
                                         1400     1410     1200     1210     1080     1600     1650     1300     1700   
                                           T        V       H0       H01     AOSYM     SMH    MOLCAS    ERIS     OPER   

              2       4        0.58       700     1000      520     2100   
                                         GEOM     BASIS   MCVARS     RHF  

 PROGRAMS   *        TOTAL    HF-SCF       INT
 CPU TIMES  *         1.46      0.33      1.04
 REAL TIME  *         2.26 SEC
 DISK USED  *       224.75 MB
 **********************************************************************************************************************************


 PROGRAM * CCSD (Closed-shell coupled cluster)     Authors: C. Hampel, H.-J. Werner, 1991, M. Deegan, P.J. Knowles, 1992


 CORETYPE=SMALL

 Convergence thresholds:  THRVAR = 1.00D-08  THRDEN = 1.00D-06

 Number of closed-shell orbitals:   9 (   5   4 )
 Number of external orbitals:     107 (  53  54 )

 Molecular orbitals read from record     2100.2  Type=RHF/CANONICAL  

 Number of N-1 electron functions:               9
 Number of N-2 electron functions:              45
 Number of singly external CSFs:               481
 Number of doubly external CSFs:            232324
 Total number of CSFs:                      232806

 Length of J-op  integral file:               0.00 MB
 Length of K-op  integral file:               0.52 MB
 Length of 3-ext integral record:             0.00 MB

 Integral transformation finished. Total CPU:   0.18 sec, npass=  1  Memory used:   3.29 MW

 Reference energy:                   -111.22488055

 MP2 singlet pair energy:              -0.30571155
 MP2 triplet pair energy:              -0.16219579
 MP2 correlation energy:               -0.46790735
 MP2 total energy:                   -111.69278790

 SCS-MP2 correlation energy:           -0.46777569   (PS=  1.200000  PT=  0.333333)
 SCS-MP2 total energy:               -111.69265624

 ITER.      SQ.NORM     CORR.ENERGY   TOTAL ENERGY   ENERGY CHANGE        DEN1      VAR(S)    VAR(P)  DIIS     TIME  TIME/IT
   1      1.12525746    -0.48477419  -111.70965474    -0.01686684    -0.00692160  0.91D-03  0.18D-02  1  1     1.97     0.21
   2      1.13259809    -0.48604111  -111.71092166    -0.00126692    -0.00919267  0.22D-04  0.19D-03  2  2     2.19     0.23
   3      1.13498638    -0.48612330  -111.71100386    -0.00008219    -0.00171596  0.33D-05  0.11D-04  3  3     2.40     0.23
   4      1.13564472    -0.48614466  -111.71102521    -0.00002135    -0.00037110  0.42D-06  0.62D-06  4  4     2.61     0.24
   5      1.13573475    -0.48614647  -111.71102702    -0.00000181    -0.00003299  0.97D-07  0.53D-07  5  5     2.84     0.24
   6      1.13574951    -0.48614582  -111.71102637     0.00000065    -0.00000355  0.27D-07  0.55D-08  6  6     3.06     0.24
   7      1.13575273    -0.48614590  -111.71102645    -0.00000008    -0.00000051  0.58D-08  0.11D-08  6  2     3.27     0.24

 Norm of t1 vector:      0.03774036      S-energy:    -0.00000013      T1 diagnostic:  0.00629006
                                                                       D1 diagnostic:  0.01329587
                                                                       D2 diagnostic:  0.14196073 (internal)


 RESULTS
 =======

  Reference energy                   -111.224880550748

  Correlated core orbitals:             1.1       1.2
  Orbital energies:                   -15.5611  -15.5607

  CCSD core-core energy                -0.016229922479
  CCSD core-valence energy             -0.013730950441
  CCSD valence correlation energy      -0.456185026278

  CCSD singlet pair energy             -0.338712026189
  CCSD triplet pair energy             -0.147433745962
  CCSD correlation energy              -0.486145899197

 !CCSD total energy                  -111.711026449945

 Timing summary (sec):

 STEP                 CPU(USER)    SYS     CPU(TOT)    WALL
 Transformation          0.18      0.02      0.20      0.22
 CCSD iterations         3.10      0.14      3.24      1.70

 Program statistics:

 Available memory in ccsd:              3145727671
 Min. memory needed in ccsd:                678950
 Max. memory used in ccsd:                  876484
 Max. memory used in cckext:                873583 ( 7 integral passes)



 **********************************************************************************************************************************
 DATASETS  * FILE   NREC   LENGTH (MB)   RECORD NAMES
              1      20      102.33       500      610      700      900      950      970     1000      129      960     1100   
                                          VAR    BASINP    GEOM    SYMINP    ZMAT    AOBASIS   BASIS     P2S    ABASIS      S 
                                         1400     1410     1200     1210     1080     1600     1650     1300     1700     1380   
                                           T        V       H0       H01     AOSYM     SMH    MOLCAS    ERIS     OPER     JKOP   

              2       4        0.58       700     1000      520     2100   
                                         GEOM     BASIS   MCVARS     RHF  

 PROGRAMS   *        TOTAL      CCSD    HF-SCF       INT
 CPU TIMES  *         3.18      1.71      0.33      1.04
 REAL TIME  *         4.22 SEC
 DISK USED  *       224.75 MB
 **********************************************************************************************************************************

 Dump information in style XML to xml output                                                                      

 Orbitals will not be exported.

 **********************************************************************************************************************************

 CCSD/cc-pVTZ energy=   -111.711026449945

            CCSD          HF-SCF
   -111.71102645   -111.22488055
 **********************************************************************************************************************************
 Molpro calculation terminated
