
 Working directory              : /var/folders/2v/xbgp75_9785319ghcgb4zr4r0000gr/T//molpro.Gzyjbxz1Ht/
 Global scratch directory       : /var/folders/2v/xbgp75_9785319ghcgb4zr4r0000gr/T//molpro.Gzyjbxz1Ht/
 Wavefunction directory         : /Users/peterk/wfu/
 Main file repository           : /var/folders/2v/xbgp75_9785319ghcgb4zr4r0000gr/T//molpro.Gzyjbxz1Ht/

 id        : peterk

 Nodes        nprocs
 pjk2022.local    1
 GA implementation: MPI file
 GA implementation (serial work in mppx): MPI file

 Using customized tuning parameters: mindgm=1; mindgv=20; mindgc=4; mindgr=1; noblas=0; minvec=7
 default implementation of scratch files=df  


 Variables initialized (1037), CPU time= 0.00 sec
 
 
 
 geometry={
 4
  O     0.0402907   -0.7150390   -0.2337508
  O    -0.0402907    0.7150390   -0.2337508
  H    -0.7702468   -0.9380581    0.2337569
  H     0.7702468    0.9380581    0.2337569
 }
 basis=cc-pVTZ
 core,small
 
 
 hf; ccsd
 
 
 
 {put,xml;noorbitals,nobasis}
 Commands initialized (841), CPU time= 0.00 sec, 716 directives.
 Default parameters read. Elapsed time= 0.05 sec

 Checking input...
 Passed
1


                                         ***  PROGRAM SYSTEM MOLPRO  ***
                                       Copyright, TTI GmbH Stuttgart, 2015
                                    Version 2023.1 linked Sat Jul 22 07:59:25 2023


 **********************************************************************************************************************************
 LABEL *                                                                                                                                                                 
  64 bit serial version                                                                  DATE: 02-Aug-23          TIME: 09:47:26  
 **********************************************************************************************************************************

 SHA1:             401d111a1dbfa49388eacdf0424f85138b2d30d0
 **********************************************************************************************************************************

 Memory per process:      3146 MW
 Total memory per node:   4194 MW
 Total GA space:          1049 MW

 GA preallocation disabled
 GA check enabled

 Geometry recognized as XYZ


 Variable memory set to 3145.7 MW

 SETTING BASIS          =    CC-PVTZ


 Recomputing integrals since basis changed


 Using spherical harmonics

 Library entry O      S cc-pVTZ              selected for orbital group  1
 Library entry O      P cc-pVTZ              selected for orbital group  1
 Library entry O      D cc-pVTZ              selected for orbital group  1
 Library entry O      F cc-pVTZ              selected for orbital group  1
 Library entry H      S cc-pVTZ              selected for orbital group  2
 Library entry H      P cc-pVTZ              selected for orbital group  2
 Library entry H      D cc-pVTZ              selected for orbital group  2


 PROGRAM * SEWARD (Integral evaluation for generally contracted gaussian basis sets)     Author: Roland Lindh, 1990

 Geometry written to block  1 of record 700


 Point group  C2  



 ATOMIC COORDINATES

 NR  ATOM    CHARGE       X              Y              Z

   1  O       8.00    0.076138388   -1.351227878   -0.441724993
   2  O       8.00   -0.076138388    1.351227878   -0.441724993
   3  H       1.00   -1.455555500   -1.772672898    0.441736521
   4  H       1.00    1.455555500    1.772672898    0.441736521

 Bond lengths in Bohr (Angstrom)

 1-2  2.706742569  1-3  1.817747595  2-4  1.817747595
     ( 1.432346483)     ( 0.961910603)     ( 0.961910603)

 Bond angles

  1-2-4  100.60737277   2-1-3  100.60737277

 NUCLEAR CHARGE:                   18
 NUMBER OF PRIMITIVE AOS:         128
 NUMBER OF SYMMETRY AOS:          116
 NUMBER OF CONTRACTIONS:           88   (   44A   +   44B   )
 NUMBER OF INNER CORE ORBITALS:     0   (    0A   +    0B   )
 NUMBER OF OUTER CORE ORBITALS:     2   (    1A   +    1B   )
 NUMBER OF VALENCE ORBITALS:       10   (    5A   +    5B   )


 NUCLEAR REPULSION ENERGY   37.20075843

 Eigenvalues of metric

         1 0.289E-02 0.664E-02 0.107E-01 0.426E-01 0.458E-01 0.499E-01 0.818E-01 0.875E-01
         2 0.310E-02 0.487E-02 0.860E-02 0.186E-01 0.430E-01 0.462E-01 0.513E-01 0.859E-01


 Contracted 2-electron integrals neglected if value below      1.0D-11
 AO integral compression algorithm  1   Integral accuracy      1.0D-11

     23.331 MB (compressed) written to integral file ( 48.4%)


 NUMBER OF SORTED TWO-ELECTRON INTEGRALS:    3921390.     BUFFER LENGTH:  32768
 NUMBER OF SEGMENTS:   1  SEGMENT LENGTH:    3921390      RECORD LENGTH: 524288

 Memory used in sort:       4.48 MW

 SORT1 READ     5967112. AND WROTE     3476590. INTEGRALS IN     10 RECORDS. CPU TIME:     0.03 SEC, REAL TIME:     0.04 SEC
 SORT2 READ     3476590. AND WROTE     3921390. INTEGRALS IN     89 RECORDS. CPU TIME:     0.06 SEC, REAL TIME:     0.07 SEC

 FILE SIZES:   FILE 1:    53.6 MBYTE,  FILE 4:    42.0 MBYTE,   TOTAL:     95.6 MBYTE

 OPERATOR DM      FOR CENTER  0  COORDINATES:    0.000000    0.000000    0.000000


 **********************************************************************************************************************************
 DATASETS  * FILE   NREC   LENGTH (MB)   RECORD NAMES
              1      19       44.15       500      610      700      900      950      970     1000      129      960     1100   
                                          VAR    BASINP    GEOM    SYMINP    ZMAT    AOBASIS   BASIS     P2S    ABASIS      S 
                                         1400     1410     1200     1210     1080     1600     1650     1300     1700   
                                           T        V       H0       H01     AOSYM     SMH    MOLCAS    ERIS     OPER   

 PROGRAMS   *        TOTAL       INT
 CPU TIMES  *         0.59      0.50
 REAL TIME  *         1.37 SEC
 DISK USED  *        91.54 MB
 **********************************************************************************************************************************


 Program * Restricted Hartree-Fock

 Orbital guess generated from atomic densities. Full valence occupancy:    6   6

 Initial occupancy:   5   4

 NELEC=   18   SYM=1   MS2= 0   THRE=1.0D-08   THRD=3.2D-06   THRG=3.2D-06  HFMA2=F  DIIS_START=2   DIIS_MAX=10   DIIS_INCORE=F

 Level shifts:    0.00 (CLOSED)    0.00 (OPEN)    0.30 (GAP_MIN)

 ITER           ETOT              DE          GRAD        DDIFF     DIIS  NEXP   TIME(IT)  TIME(TOT)  DIAG
   1     -150.81001152    -150.81001152     0.00D+00     0.13D+00     0     0       0.01      0.02    start
   2     -150.83618256      -0.02617103     0.99D-02     0.12D-01     1     0       0.01      0.03    diag
   3     -150.83727874      -0.00109618     0.21D-02     0.18D-02     2     0       0.01      0.04    diag
   4     -150.83740263      -0.00012389     0.54D-03     0.74D-03     3     0       0.01      0.05    diag
   5     -150.83741722      -0.00001460     0.20D-03     0.21D-03     4     0       0.01      0.06    diag
   6     -150.83741853      -0.00000131     0.45D-04     0.57D-04     5     0       0.01      0.07    diag
   7     -150.83741860      -0.00000007     0.89D-05     0.13D-04     6     0       0.01      0.08    diag
   8     -150.83741860      -0.00000000     0.21D-05     0.40D-05     7     0       0.01      0.09    fixocc
   9     -150.83741860      -0.00000000     0.57D-06     0.10D-05     8     0       0.01      0.10    diag
  10     -150.83741860      -0.00000000     0.13D-06     0.17D-06     0     0       0.01      0.11    diag/orth

 Final occupancy:   5   4

 !RHF STATE 1.1 Energy               -150.837418600472
  RHF One-electron energy            -282.142508416885
  RHF Two-electron energy              94.104331384106
  RHF Kinetic energy                  150.656022436378
  RHF Nuclear energy                   37.200758432308
  RHF Virial quotient                  -1.001204041904

 !RHF STATE 1.1 Dipole moment           0.00000000     0.00000000     0.67178741
 Dipole moment /Debye                   0.00000000     0.00000000     1.70751329

 Orbital energies:

           1.1          2.1          3.1          4.1          5.1          6.1          7.1
    -20.624075    -1.480268    -0.709361    -0.612689    -0.518993     0.149764     0.576794

           1.2          2.2          3.2          4.2          5.2          6.2
    -20.623778    -1.208889    -0.713936    -0.474936     0.158828     0.291533


 HOMO      4.2    -0.474936 =     -12.9237eV
 LUMO      6.1     0.149764 =       4.0753eV
 LUMO-HOMO         0.624700 =      16.9990eV

 Orbitals saved in record  2100.2


 **********************************************************************************************************************************
 DATASETS  * FILE   NREC   LENGTH (MB)   RECORD NAMES
              1      19       44.15       500      610      700      900      950      970     1000      129      960     1100   
                                          VAR    BASINP    GEOM    SYMINP    ZMAT    AOBASIS   BASIS     P2S    ABASIS      S 
                                         1400     1410     1200     1210     1080     1600     1650     1300     1700   
                                           T        V       H0       H01     AOSYM     SMH    MOLCAS    ERIS     OPER   

              2       4        0.50       700     1000      520     2100   
                                         GEOM     BASIS   MCVARS     RHF  

 PROGRAMS   *        TOTAL    HF-SCF       INT
 CPU TIMES  *         0.71      0.12      0.50
 REAL TIME  *         1.51 SEC
 DISK USED  *        91.54 MB
 **********************************************************************************************************************************


 PROGRAM * CCSD (Closed-shell coupled cluster)     Authors: C. Hampel, H.-J. Werner, 1991, M. Deegan, P.J. Knowles, 1992


 CORETYPE=SMALL

 Convergence thresholds:  THRVAR = 1.00D-08  THRDEN = 1.00D-06

 Number of closed-shell orbitals:   9 (   5   4 )
 Number of external orbitals:      79 (  39  40 )

 Molecular orbitals read from record     2100.2  Type=RHF/CANONICAL  

 Number of N-1 electron functions:               9
 Number of N-2 electron functions:              45
 Number of singly external CSFs:               355
 Number of doubly external CSFs:            126736
 Total number of CSFs:                      127092

 Length of J-op  integral file:               0.00 MB
 Length of K-op  integral file:               0.33 MB
 Length of 3-ext integral record:             0.00 MB

 Integral transformation finished. Total CPU:   0.06 sec, npass=  1  Memory used:   1.53 MW

 Reference energy:                   -150.83741860

 MP2 singlet pair energy:              -0.32789820
 MP2 triplet pair energy:              -0.19322300
 MP2 correlation energy:               -0.52112121
 MP2 total energy:                   -151.35853981

 SCS-MP2 correlation energy:           -0.51370549   (PS=  1.200000  PT=  0.333333)
 SCS-MP2 total energy:               -151.35112409

 ITER.      SQ.NORM     CORR.ENERGY   TOTAL ENERGY   ENERGY CHANGE        DEN1      VAR(S)    VAR(P)  DIIS     TIME  TIME/IT
   1      1.11735088    -0.52748431  -151.36490291    -0.00636311     0.00639720  0.15D-02  0.22D-02  1  1     0.99     0.09
   2      1.12539628    -0.52813645  -151.36555505    -0.00065214    -0.01078859  0.34D-04  0.29D-03  2  2     1.10     0.11
   3      1.12861765    -0.52826180  -151.36568040    -0.00012535    -0.00209715  0.12D-04  0.18D-04  3  3     1.21     0.12
   4      1.12977926    -0.52829758  -151.36571618    -0.00003578    -0.00059064  0.11D-05  0.17D-05  4  4     1.31     0.12
   5      1.13003422    -0.52829682  -151.36571542     0.00000076    -0.00008766  0.41D-06  0.14D-06  5  5     1.40     0.11
   6      1.13009243    -0.52829497  -151.36571357     0.00000185    -0.00000672  0.66D-07  0.19D-07  6  6     1.50     0.12
   7      1.13010800    -0.52829536  -151.36571396    -0.00000039    -0.00000217  0.13D-07  0.34D-08  6  1     1.60     0.12
   8      1.13011199    -0.52829524  -151.36571384     0.00000012     0.00000175  0.28D-08  0.62D-09  6  2     1.69     0.11

 Norm of t1 vector:      0.05097567      S-energy:    -0.00000061      T1 diagnostic:  0.00849594
                                                                       D1 diagnostic:  0.02134198
                                                                       D2 diagnostic:  0.17211094 (internal)

 Doubles amplitudes (print threshold =  0.500E-01):

         I         J         SYM. A    SYM. B    A         B      T(IJ, AB)

         4         4         2         2         2         2     -0.05307067


 RESULTS
 =======

  Reference energy                   -150.837418600472

  Correlated core orbitals:             1.1       1.2
  Orbital energies:                   -20.6241  -20.6238

  CCSD core-core energy                -0.012247341373
  CCSD core-valence energy             -0.014328509613
  CCSD valence correlation energy      -0.501719386415

  CCSD singlet pair energy             -0.358249439386
  CCSD triplet pair energy             -0.170045191589
  CCSD correlation energy              -0.528295237401

 !CCSD total energy                  -151.365713837873

 Timing summary (sec):

 STEP                 CPU(USER)    SYS     CPU(TOT)    WALL
 Transformation          0.06      0.01      0.07      0.07
 CCSD iterations         1.64      0.09      1.73      0.92

 Program statistics:

 Available memory in ccsd:              3145727671
 Min. memory needed in ccsd:                379420
 Max. memory used in ccsd:                  485352
 Max. memory used in cckext:                490333 ( 8 integral passes)



 **********************************************************************************************************************************
 DATASETS  * FILE   NREC   LENGTH (MB)   RECORD NAMES
              1      20       54.78       500      610      700      900      950      970     1000      129      960     1100   
                                          VAR    BASINP    GEOM    SYMINP    ZMAT    AOBASIS   BASIS     P2S    ABASIS      S 
                                         1400     1410     1200     1210     1080     1600     1650     1300     1700     1380   
                                           T        V       H0       H01     AOSYM     SMH    MOLCAS    ERIS     OPER     JKOP   

              2       4        0.50       700     1000      520     2100   
                                         GEOM     BASIS   MCVARS     RHF  

 PROGRAMS   *        TOTAL      CCSD    HF-SCF       INT
 CPU TIMES  *         1.58      0.87      0.12      0.50
 REAL TIME  *         2.53 SEC
 DISK USED  *        91.54 MB
 **********************************************************************************************************************************

 Dump information in style XML to xml output                                                                      

 Orbitals will not be exported.

 **********************************************************************************************************************************

 CCSD/cc-pVTZ energy=   -151.365713837873

            CCSD          HF-SCF
   -151.36571384   -150.83741860
 **********************************************************************************************************************************
 Molpro calculation terminated
