
 Working directory              : /var/folders/2v/xbgp75_9785319ghcgb4zr4r0000gr/T//molpro.Xl1oL47A0l/
 Global scratch directory       : /var/folders/2v/xbgp75_9785319ghcgb4zr4r0000gr/T//molpro.Xl1oL47A0l/
 Wavefunction directory         : /Users/peterk/wfu/
 Main file repository           : /var/folders/2v/xbgp75_9785319ghcgb4zr4r0000gr/T//molpro.Xl1oL47A0l/

 id        : peterk

 Nodes        nprocs
 pjk2022.local    1
 GA implementation: MPI file
 GA implementation (serial work in mppx): MPI file

 Using customized tuning parameters: mindgm=1; mindgv=20; mindgc=4; mindgr=1; noblas=0; minvec=7
 default implementation of scratch files=df  


 Variables initialized (1037), CPU time= 0.00 sec
 
 
 
 geometry={
 4
  S    -0.0687310    1.0220312   -0.4834061
  S     0.0687310   -1.0220312   -0.4834061
  H     0.8386269    1.2863190    0.4675986
  H    -0.8386269   -1.2863190    0.4675986
 }
 basis=cc-pVTZ
 core,small
 
 
 hf; papt;mp2
 
 
 
 {put,xml;noorbitals,nobasis}
 Commands initialized (841), CPU time= 0.01 sec, 716 directives.
 Default parameters read. Elapsed time= 0.05 sec

 Checking input...
 Passed
1


                                         ***  PROGRAM SYSTEM MOLPRO  ***
                                       Copyright, TTI GmbH Stuttgart, 2015
                                    Version 2023.1 linked Sat Jul 22 07:59:25 2023


 **********************************************************************************************************************************
 LABEL *                                                                                                                                                                 
  64 bit serial version                                                                  DATE: 01-Aug-23          TIME: 22:03:57  
 **********************************************************************************************************************************

 SHA1:             401d111a1dbfa49388eacdf0424f85138b2d30d0
 **********************************************************************************************************************************

 Memory per process:      3146 MW
 Total memory per node:   4194 MW
 Total GA space:          1049 MW

 GA preallocation disabled
 GA check enabled

 Geometry recognized as XYZ


 Variable memory set to 3145.7 MW

 SETTING BASIS          =    CC-PVTZ


 Recomputing integrals since basis changed


 Using spherical harmonics

 Library entry S      S cc-pVTZ              selected for orbital group  1
 Library entry S      P cc-pVTZ              selected for orbital group  1
 Library entry S      D cc-pVTZ              selected for orbital group  1
 Library entry S      F cc-pVTZ              selected for orbital group  1
 Library entry H      S cc-pVTZ              selected for orbital group  2
 Library entry H      P cc-pVTZ              selected for orbital group  2
 Library entry H      D cc-pVTZ              selected for orbital group  2


 PROGRAM * SEWARD (Integral evaluation for generally contracted gaussian basis sets)     Author: Roland Lindh, 1990

 Geometry written to block  1 of record 700


 Point group  C2  



 ATOMIC COORDINATES

 NR  ATOM    CHARGE       X              Y              Z

   1  S      16.00   -0.129882766    1.931359059   -0.913505136
   2  S      16.00    0.129882766   -1.931359059   -0.913505136
   3  H       1.00    1.584775162    2.430790619    0.883633290
   4  H       1.00   -1.584775162   -2.430790619    0.883633290

 Bond lengths in Bohr (Angstrom)

 1-2  3.871442804  1-3  2.533612089  2-4  2.533612089
     ( 2.048679305)     ( 1.340729779)     ( 1.340729779)

 Bond angles

  1-2-4   98.70045567   2-1-3   98.70045567

 NUCLEAR CHARGE:                   34
 NUMBER OF PRIMITIVE AOS:         162
 NUMBER OF SYMMETRY AOS:          150
 NUMBER OF CONTRACTIONS:           96   (   48A   +   48B   )
 NUMBER OF INNER CORE ORBITALS:     2   (    1A   +    1B   )
 NUMBER OF OUTER CORE ORBITALS:     8   (    4A   +    4B   )
 NUMBER OF VALENCE ORBITALS:       10   (    5A   +    5B   )


 NUCLEAR REPULSION ENERGY   85.40927887

 Eigenvalues of metric

         1 0.193E-02 0.566E-02 0.145E-01 0.243E-01 0.256E-01 0.332E-01 0.892E-01 0.100E+00
         2 0.198E-02 0.272E-02 0.654E-02 0.139E-01 0.256E-01 0.295E-01 0.312E-01 0.888E-01


 Contracted 2-electron integrals neglected if value below      1.0D-11
 AO integral compression algorithm  1   Integral accuracy      1.0D-11

     31.195 MB (compressed) written to integral file ( 46.1%)


 NUMBER OF SORTED TWO-ELECTRON INTEGRALS:    5533080.     BUFFER LENGTH:  32768
 NUMBER OF SEGMENTS:   1  SEGMENT LENGTH:    5533080      RECORD LENGTH: 524288

 Memory used in sort:       6.09 MW

 SORT1 READ     8479944. AND WROTE     4820065. INTEGRALS IN     14 RECORDS. CPU TIME:     0.03 SEC, REAL TIME:     0.05 SEC
 SORT2 READ     4820065. AND WROTE     5533080. INTEGRALS IN    119 RECORDS. CPU TIME:     0.08 SEC, REAL TIME:     0.08 SEC

 FILE SIZES:   FILE 1:    61.5 MBYTE,  FILE 4:    58.8 MBYTE,   TOTAL:    120.3 MBYTE

 OPERATOR DM      FOR CENTER  0  COORDINATES:    0.000000    0.000000    0.000000


 **********************************************************************************************************************************
 DATASETS  * FILE   NREC   LENGTH (MB)   RECORD NAMES
              1      19       49.38       500      610      700      900      950      970     1000      129      960     1100   
                                          VAR    BASINP    GEOM    SYMINP    ZMAT    AOBASIS   BASIS     P2S    ABASIS      S 
                                         1400     1410     1200     1210     1080     1600     1650     1300     1700   
                                           T        V       H0       H01     AOSYM     SMH    MOLCAS    ERIS     OPER   

 PROGRAMS   *        TOTAL       INT
 CPU TIMES  *         0.70      0.61
 REAL TIME  *         1.24 SEC
 DISK USED  *       115.09 MB
 **********************************************************************************************************************************


 Program * Restricted Hartree-Fock

 Orbital guess generated from atomic densities. Full valence occupancy:   10  10

 Initial occupancy:   9   8

 NELEC=   34   SYM=1   MS2= 0   THRE=1.0D-08   THRD=3.2D-06   THRG=3.2D-06  HFMA2=F  DIIS_START=2   DIIS_MAX=10   DIIS_INCORE=F

 Level shifts:    0.00 (CLOSED)    0.00 (OPEN)    0.30 (GAP_MIN)

 ITER           ETOT              DE          GRAD        DDIFF     DIIS  NEXP   TIME(IT)  TIME(TOT)  DIAG
   1     -796.23343663    -796.23343663     0.00D+00     0.16D+00     0     0       0.01      0.02    start
   2     -796.25789239      -0.02445576     0.48D-02     0.83D-02     1     0       0.02      0.04    diag
   3     -796.26038520      -0.00249282     0.16D-02     0.16D-02     2     0       0.01      0.05    diag
   4     -796.26083655      -0.00045135     0.49D-03     0.77D-03     3     0       0.02      0.07    diag
   5     -796.26086139      -0.00002484     0.11D-03     0.20D-03     4     0       0.01      0.08    diag
   6     -796.26086242      -0.00000103     0.24D-04     0.50D-04     5     0       0.01      0.09    diag
   7     -796.26086251      -0.00000009     0.68D-05     0.16D-04     6     0       0.02      0.11    diag
   8     -796.26086252      -0.00000001     0.24D-05     0.58D-05     7     0       0.01      0.12    fixocc
   9     -796.26086252      -0.00000000     0.66D-06     0.23D-05     8     0       0.01      0.13    diag
  10     -796.26086252      -0.00000000     0.22D-06     0.45D-06     0     0       0.02      0.15    diag/orth

 Final occupancy:   9   8

 !RHF STATE 1.1 Energy               -796.260862522487
  RHF One-electron energy           -1270.723157772601
  RHF Two-electron energy             389.053016383603
  RHF Kinetic energy                  796.240865798878
  RHF Nuclear energy                   85.409278866511
  RHF Virial quotient                  -1.000025113913

 !RHF STATE 1.1 Dipole moment           0.00000000     0.00000000     0.52361590
 Dipole moment /Debye                   0.00000000     0.00000000     1.33089887

 Orbital energies:

           1.1          2.1          3.1          4.1          5.1          6.1          7.1          8.1          9.1         10.1
    -91.988411    -8.988892    -6.670001    -6.668828    -6.667657    -1.060213    -0.600592    -0.479776    -0.379943     0.125729

          11.1
      0.295976

           1.2          2.2          3.2          4.2          5.2          6.2          7.2          8.2          9.2         10.2
    -91.988409    -8.988699    -6.669698    -6.668703    -6.667658    -0.884888    -0.549810    -0.386389     0.104732     0.150103


 HOMO      9.1    -0.379943 =     -10.3388eV
 LUMO      9.2     0.104732 =       2.8499eV
 LUMO-HOMO         0.484675 =      13.1887eV

 Orbitals saved in record  2100.2


 **********************************************************************************************************************************
 DATASETS  * FILE   NREC   LENGTH (MB)   RECORD NAMES
              1      19       49.38       500      610      700      900      950      970     1000      129      960     1100   
                                          VAR    BASINP    GEOM    SYMINP    ZMAT    AOBASIS   BASIS     P2S    ABASIS      S 
                                         1400     1410     1200     1210     1080     1600     1650     1300     1700   
                                           T        V       H0       H01     AOSYM     SMH    MOLCAS    ERIS     OPER   

              2       4        0.51       700     1000      520     2100   
                                         GEOM     BASIS   MCVARS     RHF  

 PROGRAMS   *        TOTAL    HF-SCF       INT
 CPU TIMES  *         0.85      0.15      0.61
 REAL TIME  *         1.41 SEC
 DISK USED  *       115.09 MB
 **********************************************************************************************************************************


 PROGRAM * PAPT (Closed-shell)     Authors: C. Hampel, H.-J. Werner, 1991, P.J. Knowles, 2021


 CORETYPE=SMALL

 Convergence thresholds:  THRVAR = 1.00D-08  THRDEN = 1.00D-06

 Number of core orbitals:           2 (   1   1 )
 Number of closed-shell orbitals:  15 (   8   7 )
 Number of external orbitals:      79 (  39  40 )

 Molecular orbitals read from record     2100.2  Type=RHF/CANONICAL  

 Checking core orbitals using projection, core_type=SMALL
 Threshold for active space selection:  0.30


 Number of target functions:              2   (   1   1 )

 Number of N-1 electron functions:              15
 Number of N-2 electron functions:             120
 Number of singly external CSFs:               592
 Number of doubly external CSFs:            351649
 Total number of CSFs:                      352242

 Length of J-op  integral file:               0.00 MB
 Length of K-op  integral file:               0.38 MB

 Integral transformation finished. Total CPU:   0.05 sec, npass=  1  Memory used:   0.73 MW

 Reference energy:                   -796.26086252

                        CORR.ENERGY   TOTAL ENERGY   ENERGY CHANGE
 MP2:                   -0.42771589  -796.68857841    -0.42771589

 SCS-MP2 correlation energy:           -0.42405426   (PS=  1.200000  PT=  0.333333)
 SCS-MP2 total energy:               -796.68491678
 Iteration:   1     0.2893D+00
 Iteration:   2     0.5558D+00
 Iteration:   3     0.8889D-01
 Iteration:   4     0.4821D+00
 Iteration:   5     0.2146D-01
 Iteration:   6     0.2458D-01
 Iteration:   7     0.7110D-02
 Iteration:   8     0.3052D-02
 Iteration:   9     0.6530D-01
 Iteration:  10     0.6463D-03
 Iteration:  11     0.8380D-03
 Iteration:  12     0.1661D-03
 Iteration:  13     0.6002D-04
 PAPT operator written to  7000.1
 PAPT orbitals and eigenvalues written to  7000.2

 MP3(D):                -0.46108862  -796.72195114    -0.03337273



 RESULTS
 =======

  Reference energy                   -796.260862522486

  Correlated core orbitals:             2.1       3.1       4.1       5.1       2.2       3.2       4.2       5.2
  Orbital energies:                    -8.9889   -6.6700   -6.6688   -6.6677   -8.9887   -6.6697   -6.6687   -6.6677

  MP3 core-core energy                 -0.045260901185
  MP3 core-valence energy              -0.025580286148
  MP3 valence correlation energy       -0.390247433778

  MP3 singlet pair energy              -0.308549688568
  MP3 triplet pair energy              -0.152538932543
  MP3 correlation energy               -0.461088621111

 !MP3 total energy                   -796.721951143597

 Timing summary (sec):

 STEP                 CPU(USER)    SYS     CPU(TOT)    WALL
 Transformation          0.06      0.02      0.08      0.07
 CCSD iterations         1.56      0.02      1.58      0.63

 Program statistics:

 Available memory in ccsd:              3145727091
 Min. memory needed in ccsd:                956523
 Max. memory used in ccsd:                 1262459
 Max. memory used in cckext:               1280165 ( 1 integral passes)



 **********************************************************************************************************************************
 DATASETS  * FILE   NREC   LENGTH (MB)   RECORD NAMES
              1      21       55.83       500      610      700      900      950      970     1000      129      960     1100   
                                          VAR    BASINP    GEOM    SYMINP    ZMAT    AOBASIS   BASIS     P2S    ABASIS      S 
                                         1400     1410     1200     1210     1080     1600     1650     1300     1700     1380   
                                           T        V       H0       H01     AOSYM     SMH    MOLCAS    ERIS     OPER     JKOP   
                                         7000   
                                        PAPT AO    

              2       5        0.72       700     1000      520     2100     7000   
                                         GEOM     BASIS   MCVARS     RHF     PAPT   

 PROGRAMS   *        TOTAL      PAPT    HF-SCF       INT
 CPU TIMES  *         1.54      0.69      0.15      0.61
 REAL TIME  *         2.14 SEC
 DISK USED  *       115.09 MB
 **********************************************************************************************************************************


 PROGRAM * MP2 (Closed-shell)     Authors: C. Hampel, H.-J. Werner, 1991, M. Deegan, P.J. Knowles, 1992


 CORETYPE=SMALL

 Convergence thresholds:  THRVAR = 1.00D-08  THRDEN = 1.00D-06

 Number of core orbitals:           2 (   1   1 )
 Number of closed-shell orbitals:  15 (   8   7 )
 Number of external orbitals:      79 (  39  40 )

 Molecular orbitals read from record     7000.2  Type=PAPT/CANONICAL (state 1.1)

 Checking core orbitals using projection, core_type=SMALL
 Threshold for active space selection:  0.30


 Number of target functions:              2   (   1   1 )

 Number of N-1 electron functions:              15
 Number of N-2 electron functions:             120
 Number of singly external CSFs:               592
 Number of doubly external CSFs:            351649
 Total number of CSFs:                      352242

 Length of J-op  integral file:               0.00 MB
 Length of K-op  integral file:               0.38 MB

 Integral transformation finished. Total CPU:   0.05 sec, npass=  1  Memory used:   0.73 MW
 Orbital energies read from record       7000.2  Type=PAPT/CANONICAL (state 1.1)

 Memory needed for MP2:                      0.02 MW

 SCS-MP2 correlation energy:           -0.465337660510   (PS=  1.200000  PT=  0.333333)
 SCS-MP2 total energy:               -796.726200182997


  Reference energy                   -796.260862522487

  Correlated core orbitals:             2.1       3.1       4.1       5.1       2.2       3.2       4.2       5.2
  Orbital energies:                    -8.8035   -6.7574   -6.8100   -6.8794   -8.8077   -6.7508   -6.8083   -6.8795

  MP2 core-core energy                 -0.045193820076
  MP2 core-valence energy              -0.025735645362
  MP2 valence correlation energy       -0.396308368350

  MP2 singlet pair energy              -0.302212899111
  MP2 triplet pair energy              -0.165024934677
  MP2 correlation energy               -0.467237833788

 !MP2 total energy                   -796.728100356275


 **********************************************************************************************************************************
 DATASETS  * FILE   NREC   LENGTH (MB)   RECORD NAMES
              1      21       55.83       500      610      700      900      950      970     1000      129      960     1100   
                                          VAR    BASINP    GEOM    SYMINP    ZMAT    AOBASIS   BASIS     P2S    ABASIS      S 
                                         1400     1410     1200     1210     1080     1600     1650     1300     1700     1380   
                                           T        V       H0       H01     AOSYM     SMH    MOLCAS    ERIS     OPER     JKOP   
                                         7000   
                                        PAPT AO    

              2       5        0.72       700     1000      520     2100     7000   
                                         GEOM     BASIS   MCVARS     RHF     PAPT   

 PROGRAMS   *        TOTAL       MP2      PAPT    HF-SCF       INT
 CPU TIMES  *         1.66      0.12      0.69      0.15      0.61
 REAL TIME  *         2.28 SEC
 DISK USED  *       115.09 MB
 **********************************************************************************************************************************

 Dump information in style XML to xml output                                                                      

 Orbitals will not be exported.

 **********************************************************************************************************************************

 MP2/cc-pVTZ energy=   -796.728100356275

             MP2            PAPT          HF-SCF
   -796.72810036   -796.72195114   -796.26086252
 **********************************************************************************************************************************
 Molpro calculation terminated
