
 Working directory              : /var/folders/2v/xbgp75_9785319ghcgb4zr4r0000gr/T//molpro.7lf2fieJ4x/
 Global scratch directory       : /var/folders/2v/xbgp75_9785319ghcgb4zr4r0000gr/T//molpro.7lf2fieJ4x/
 Wavefunction directory         : /Users/peterk/wfu/
 Main file repository           : /var/folders/2v/xbgp75_9785319ghcgb4zr4r0000gr/T//molpro.7lf2fieJ4x/

 id        : peterk

 Nodes        nprocs
 pjk2022.local    1
 GA implementation: MPI file
 GA implementation (serial work in mppx): MPI file

 Using customized tuning parameters: mindgm=1; mindgv=20; mindgc=4; mindgr=1; noblas=0; minvec=7
 default implementation of scratch files=df  


 Variables initialized (1037), CPU time= 0.00 sec
 
 
 
 geometry={
 10
  C     1.1718442    1.4111858    0.0000000
  C     0.0357523    0.7227548    0.0000000
  C    -0.0357523   -0.7227548    0.0000000
  C    -1.1718442   -1.4111858    0.0000000
  H    -0.9095134    1.2507964    0.0000000
  H     1.1817440    2.4889070    0.0000000
  H     2.1293121    0.9111032    0.0000000
  H     0.9095134   -1.2507964    0.0000000
  H    -1.1817440   -2.4889070    0.0000000
  H    -2.1293121   -0.9111032    0.0000000
 }
 basis=cc-pVTZ
 core,small
 
 
 hf; papt;mp4
 
 
 
 {put,xml;noorbitals,nobasis}
 Commands initialized (841), CPU time= 0.01 sec, 716 directives.
 Default parameters read. Elapsed time= 0.05 sec

 Checking input...
 Passed
1


                                         ***  PROGRAM SYSTEM MOLPRO  ***
                                       Copyright, TTI GmbH Stuttgart, 2015
                                    Version 2023.1 linked Sat Jul 22 07:59:25 2023


 **********************************************************************************************************************************
 LABEL *                                                                                                                                                                 
  64 bit serial version                                                                  DATE: 01-Aug-23          TIME: 23:14:28  
 **********************************************************************************************************************************

 SHA1:             401d111a1dbfa49388eacdf0424f85138b2d30d0
 **********************************************************************************************************************************

 Memory per process:      3146 MW
 Total memory per node:   4194 MW
 Total GA space:          1049 MW

 GA preallocation disabled
 GA check enabled

 Geometry recognized as XYZ


 Variable memory set to 3145.7 MW

 SETTING BASIS          =    CC-PVTZ


 Recomputing integrals since basis changed


 Using spherical harmonics

 Library entry C      S cc-pVTZ              selected for orbital group  1
 Library entry C      P cc-pVTZ              selected for orbital group  1
 Library entry C      D cc-pVTZ              selected for orbital group  1
 Library entry C      F cc-pVTZ              selected for orbital group  1
 Library entry H      S cc-pVTZ              selected for orbital group  2
 Library entry H      P cc-pVTZ              selected for orbital group  2
 Library entry H      D cc-pVTZ              selected for orbital group  2


 PROGRAM * SEWARD (Integral evaluation for generally contracted gaussian basis sets)     Author: Roland Lindh, 1990

 Geometry written to block  1 of record 700


 Point group  C2h 



 ATOMIC COORDINATES

 NR  ATOM    CHARGE       X              Y              Z

   1  C       6.00    2.214464599    2.666754673    0.000000000
   2  C       6.00   -2.214464599   -2.666754673    0.000000000
   3  C       6.00    0.067562055    1.365808627    0.000000000
   4  C       6.00   -0.067562055   -1.365808627    0.000000000
   5  H       1.00   -1.718731233    2.363662634    0.000000000
   6  H       1.00    1.718731233   -2.363662634    0.000000000
   7  H       1.00    2.233172509    4.703352580    0.000000000
   8  H       1.00   -2.233172509   -4.703352580    0.000000000
   9  H       1.00    4.023816703    1.721735519    0.000000000
  10  H       1.00   -4.023816703   -1.721735519    0.000000000

 Bond lengths in Bohr (Angstrom)

 1-3  2.510308974  1-7  2.036683829  1-9  2.041278089  2-4  2.510308974  2-8  2.036683829
     ( 1.328398301)     ( 1.077766668)     ( 1.080197846)     ( 1.328398301)     ( 1.077766668)

  2-10  2.041278089   3- 4  2.734957285   3- 5  2.046107604   4- 6  2.046107604
       ( 1.080197846)       ( 1.447277068)       ( 1.082753515)       ( 1.082753515)

 Bond angles

  1-3-4  124.04628726   1-3-5  119.59716487   2-4-3  124.04628726   2-4-6  119.59716487

  3-1-7  121.74065849   3-1-9  121.20770824   3-4-6  116.35654787   4-2-8  121.74065849

  4- 2-10  121.20770824   4- 3- 5  116.35654787   7- 1- 9  117.05163327   8- 2-10  117.05163327

 NUCLEAR CHARGE:                   30
 NUMBER OF PRIMITIVE AOS:         290
 NUMBER OF SYMMETRY AOS:          264
 NUMBER OF CONTRACTIONS:          204   (   70Ag  +   32Au  +   70Bu  +   32Bg  )
 NUMBER OF INNER CORE ORBITALS:     0   (    0Ag  +    0Au  +    0Bu  +    0Bg  )
 NUMBER OF OUTER CORE ORBITALS:     4   (    2Ag  +    0Au  +    2Bu  +    0Bg  )
 NUMBER OF VALENCE ORBITALS:       22   (    9Ag  +    2Au  +    9Bu  +    2Bg  )


 NUCLEAR REPULSION ENERGY  104.43406737

 Eigenvalues of metric

         1 0.479E-03 0.849E-03 0.129E-02 0.136E-02 0.159E-02 0.241E-02 0.590E-02 0.600E-02
         2 0.171E-01 0.334E-01 0.469E-01 0.710E-01 0.912E-01 0.106E+00 0.153E+00 0.207E+00
         3 0.317E-03 0.730E-03 0.101E-02 0.122E-02 0.138E-02 0.168E-02 0.222E-02 0.420E-02
         4 0.191E-01 0.258E-01 0.428E-01 0.475E-01 0.627E-01 0.103E+00 0.121E+00 0.166E+00


 Contracted 2-electron integrals neglected if value below      1.0D-11
 AO integral compression algorithm  1   Integral accuracy      1.0D-11

     288.358 MB (compressed) written to integral file ( 53.5%)


 NUMBER OF SORTED TWO-ELECTRON INTEGRALS:   56616809.     BUFFER LENGTH:  32768
 NUMBER OF SEGMENTS:   4  SEGMENT LENGTH:   15999422      RECORD LENGTH: 524288

 Memory used in sort:      16.56 MW

 SORT1 READ    67458408. AND WROTE    56589821. INTEGRALS IN    163 RECORDS. CPU TIME:     0.74 SEC, REAL TIME:     0.92 SEC
 SORT2 READ    56589821. AND WROTE    56616809. INTEGRALS IN   1100 RECORDS. CPU TIME:     0.47 SEC, REAL TIME:     0.60 SEC

 FILE SIZES:   FILE 1:   319.5 MBYTE,  FILE 4:   683.7 MBYTE,   TOTAL:   1003.2 MBYTE

 OPERATOR DM      FOR CENTER  0  COORDINATES:    0.000000    0.000000    0.000000


 **********************************************************************************************************************************
 DATASETS  * FILE   NREC   LENGTH (MB)   RECORD NAMES
              1      19      265.49       500      610      700      900      950      970     1000      129      960     1100   
                                          VAR    BASINP    GEOM    SYMINP    ZMAT    AOBASIS   BASIS     P2S    ABASIS      S 
                                         1400     1410     1200     1210     1080     1600     1650     1300     1700   
                                           T        V       H0       H01     AOSYM     SMH    MOLCAS    ERIS     OPER   

 PROGRAMS   *        TOTAL       INT
 CPU TIMES  *         5.18      5.09
 REAL TIME  *         6.11 SEC
 DISK USED  *       957.26 MB
 **********************************************************************************************************************************


 Program * Restricted Hartree-Fock

 Orbital guess generated from atomic densities. Full valence occupancy:   11   2  11   2

 Initial occupancy:   7   1   6   1

 NELEC=   30   SYM=1   MS2= 0   THRE=1.0D-08   THRD=3.2D-06   THRG=3.2D-06  HFMA2=F  DIIS_START=2   DIIS_MAX=10   DIIS_INCORE=F

 Level shifts:    0.00 (CLOSED)    0.00 (OPEN)    0.30 (GAP_MIN)

 ITER           ETOT              DE          GRAD        DDIFF     DIIS  NEXP   TIME(IT)  TIME(TOT)  DIAG
   1     -154.93245453    -154.93245453     0.00D+00     0.97D-01     0     0       0.09      0.18    start
   2     -154.97346838      -0.04101385     0.57D-02     0.87D-02     1     0       0.10      0.28    diag
   3     -154.97763015      -0.00416177     0.19D-02     0.24D-02     2     0       0.10      0.38    diag
   4     -154.97823924      -0.00060909     0.64D-03     0.10D-02     3     0       0.09      0.47    diag
   5     -154.97826885      -0.00002960     0.17D-03     0.22D-03     4     0       0.10      0.57    diag
   6     -154.97827146      -0.00000261     0.37D-04     0.82D-04     5     0       0.10      0.67    diag
   7     -154.97827162      -0.00000016     0.79D-05     0.19D-04     6     0       0.09      0.76    diag
   8     -154.97827164      -0.00000001     0.22D-05     0.49D-05     7     0       0.10      0.86    fixocc
   9     -154.97827164      -0.00000000     0.51D-06     0.11D-05     8     0       0.10      0.96    diag
  10     -154.97827164      -0.00000000     0.12D-06     0.19D-06     0     0       0.09      1.05    diag/orth

 Final occupancy:   7   1   6   1

 !RHF STATE 1.1 Energy               -154.978271637257
  RHF One-electron energy            -414.317268457124
  RHF Two-electron energy             154.904929445929
  RHF Kinetic energy                  154.862717084712
  RHF Nuclear energy                  104.434067373938
  RHF Virial quotient                  -1.000746174126

 !RHF STATE 1.1 Dipole moment           0.00000000     0.00000000     0.00000000
 Dipole moment /Debye                   0.00000000     0.00000000     0.00000000

 Orbital energies:

           1.1          2.1          3.1          4.1          5.1          6.1          7.1          8.1          9.1
    -11.235252   -11.225165    -1.095517    -0.827661    -0.637049    -0.559348    -0.493511     0.159051     0.214291

           1.2          2.2          3.2
     -0.446896     0.113150     0.431665

           1.3          2.3          3.3          4.3          5.3          6.3          7.3          8.3
    -11.234382   -11.225157    -1.002767    -0.755442    -0.646689    -0.544100     0.164138     0.171782

           1.4          2.4          3.4
     -0.324771     0.215962     0.486125


 HOMO      1.4    -0.324771 =      -8.8375eV
 LUMO      2.2     0.113150 =       3.0790eV
 LUMO-HOMO         0.437921 =      11.9164eV

 Orbitals saved in record  2100.2


 **********************************************************************************************************************************
 DATASETS  * FILE   NREC   LENGTH (MB)   RECORD NAMES
              1      19      265.49       500      610      700      900      950      970     1000      129      960     1100   
                                          VAR    BASINP    GEOM    SYMINP    ZMAT    AOBASIS   BASIS     P2S    ABASIS      S 
                                         1400     1410     1200     1210     1080     1600     1650     1300     1700   
                                           T        V       H0       H01     AOSYM     SMH    MOLCAS    ERIS     OPER   

              2       4        0.74       700     1000      520     2100   
                                         GEOM     BASIS   MCVARS     RHF  

 PROGRAMS   *        TOTAL    HF-SCF       INT
 CPU TIMES  *         6.23      1.05      5.09
 REAL TIME  *         7.53 SEC
 DISK USED  *       957.26 MB
 **********************************************************************************************************************************


 PROGRAM * PAPT (Closed-shell)     Authors: C. Hampel, H.-J. Werner, 1991, P.J. Knowles, 2021


 CORETYPE=SMALL

 Convergence thresholds:  THRVAR = 1.00D-08  THRDEN = 1.00D-06

 Number of closed-shell orbitals:  15 (   7   1   6   1 )
 Number of external orbitals:     189 (  63  31  64  31 )

 Molecular orbitals read from record     2100.2  Type=RHF/CANONICAL  

 Number of N-1 electron functions:              15
 Number of N-2 electron functions:             120
 Number of singly external CSFs:               887
 Number of doubly external CSFs:           1069974
 Total number of CSFs:                     1070862

 Length of J-op  integral file:               0.00 MB
 Length of K-op  integral file:               0.88 MB

 Integral transformation finished. Total CPU:   0.31 sec, npass=  1  Memory used:   1.49 MW

 Reference energy:                   -154.97827164

                        CORR.ENERGY   TOTAL ENERGY   ENERGY CHANGE
 MP2:                   -0.71175720  -155.69002884    -0.71175720

 SCS-MP2 correlation energy:           -0.71824550   (PS=  1.200000  PT=  0.333333)
 SCS-MP2 total energy:               -155.69651713
 Iteration:   1     0.3306D+00
 Iteration:   2     0.4341D+01
 Iteration:   3     0.1401D+00
 Iteration:   4     0.3077D+00
 Iteration:   5     0.5438D-01
 Iteration:   6     0.7959D-01
 Iteration:   7     0.2285D-01
 Iteration:   8     0.8794D-02
 Iteration:   9     0.9525D-01
 Iteration:  10     0.1369D-02
 Iteration:  11     0.3612D-02
 Iteration:  12     0.4672D-03
 Iteration:  13     0.7040D-03
 Iteration:  14     0.2532D-03
 Iteration:  15     0.9453D-04
 PAPT operator written to  7000.1
 PAPT orbitals and eigenvalues written to  7000.2

 MP3(D):                -0.74740486  -155.72567650    -0.03564766



 RESULTS
 =======

  Reference energy                   -154.978271637257

  Correlated core orbitals:             1.1       2.1       1.3       2.3
  Orbital energies:                   -11.2353  -11.2252  -11.2344  -11.2252

  MP3 core-core energy                 -0.041446550824
  MP3 core-valence energy              -0.024136703114
  MP3 valence correlation energy       -0.681821608161

  MP3 singlet pair energy              -0.523703157058
  MP3 triplet pair energy              -0.223701705040
  MP3 correlation energy               -0.747404862098

 !MP3 total energy                   -155.725676499355

 Timing summary (sec):

 STEP                 CPU(USER)    SYS     CPU(TOT)    WALL
 Transformation          0.32      0.04      0.36      0.37
 CCSD iterations         8.10      0.07      8.17      1.85

 Program statistics:

 Available memory in ccsd:              3145727093
 Min. memory needed in ccsd:               2705827
 Max. memory used in ccsd:                 3678229
 Max. memory used in cckext:               3137525 ( 1 integral passes)



 **********************************************************************************************************************************
 DATASETS  * FILE   NREC   LENGTH (MB)   RECORD NAMES
              1      21      281.18       500      610      700      900      950      970     1000      129      960     1100   
                                          VAR    BASINP    GEOM    SYMINP    ZMAT    AOBASIS   BASIS     P2S    ABASIS      S 
                                         1400     1410     1200     1210     1080     1600     1650     1300     1700     1380   
                                           T        V       H0       H01     AOSYM     SMH    MOLCAS    ERIS     OPER     JKOP   
                                         7000   
                                        PAPT AO    

              2       5        1.12       700     1000      520     2100     7000   
                                         GEOM     BASIS   MCVARS     RHF     PAPT   

 PROGRAMS   *        TOTAL      PAPT    HF-SCF       INT
 CPU TIMES  *         8.35      2.12      1.05      5.09
 REAL TIME  *         9.79 SEC
 DISK USED  *       957.26 MB
 **********************************************************************************************************************************


 PROGRAM * MP4 (Closed-shell)     Authors: C. Hampel, H.-J. Werner, 1991, M. Deegan, P.J. Knowles, 1992


 CORETYPE=SMALL

 Convergence thresholds:  THRVAR = 1.00D-08  THRDEN = 1.00D-06

 MP4(T)     terms to be evaluated (factor= 0.000)


 Number of closed-shell orbitals:  15 (   7   1   6   1 )
 Number of external orbitals:     189 (  63  31  64  31 )

 Molecular orbitals read from record     7000.2  Type=PAPT/CANONICAL (state 1.1)

 Number of N-1 electron functions:              15
 Number of N-2 electron functions:             120
 Number of singly external CSFs:               887
 Number of doubly external CSFs:           1069974
 Total number of CSFs:                     1070862

 Length of J-op  integral file:               0.00 MB
 Length of K-op  integral file:               0.88 MB

 Memory could be reduced to 32.07 Mwords without degradation in triples

 Integral transformation finished. Total CPU:   0.68 sec, npass=  1  Memory used:   8.20 MW
 Orbital energies read from record       7000.2  Type=PAPT/CANONICAL (state 1.1)

 Reference energy:                   -154.97827164

                        CORR.ENERGY   TOTAL ENERGY   ENERGY CHANGE
 MP2:                   -0.75508497  -155.73335661    -0.75508497

 SCS-MP2 correlation energy:           -0.76577941   (PS=  1.200000  PT=  0.333333)
 SCS-MP2 total energy:               -155.74405104

 MP3(D):                -0.75548991  -155.73376155    -0.00040494
 MP4(DQ):               -0.74353684  -155.72180848     0.01195307
 MP4(SDQ):              -0.74917399  -155.72744563    -0.00563715

 Norm of t1 vector:      0.06256909      S-energy:    -0.00563715      T1 diagnostic:  0.00807764

 Largest off-diagonal element in interal  block of Fock matrix:  0.10D+00
 Largest off-diagonal element in external block of Fock matrix:  0.21D+00


 Total CPU time for triples:     19.76 sec


 RESULTS
 =======

  Reference energy                   -154.978271637257

  Correlated core orbitals:             1.1       2.1       1.3       2.3
  Orbital energies:                   -10.7203  -10.6926  -10.7223  -10.6915

  MP4(SDQ) core-core energy            -0.041825833786
  MP4(SDQ) core-valence energy         -0.024042918657
  MP4(SDQ) valence correlation ener    -0.683305241905

  MP4(SDQ) singlet pair energy         -0.523431419576
  MP4(SDQ) triplet pair energy         -0.220105421305
  MP4(SDQ) correlation energy          -0.749173994348

  Triples contribution                 -0.036788241204
  Total correlation energy             -0.785962235552

  MP4(SDQ) total energy              -155.727445631605
 !MP4(SDTQ) total energy             -155.764233872809

 Timing summary (sec):

 STEP                 CPU(USER)    SYS     CPU(TOT)    WALL
 Transformation          0.78      0.11      0.89      0.92
 CCSD iterations         9.71      0.06      9.77      1.36
 Triples                19.76      1.26     21.02     21.45

 Program statistics:

 Available memory in ccsd:              3145727093
 Min. memory needed in ccsd:               2705827
 Max. memory used in ccsd:                 3678229
 Max. memory used in cckext:               3137525 ( 1 integral passes)



 **********************************************************************************************************************************
 DATASETS  * FILE   NREC   LENGTH (MB)   RECORD NAMES
              1      22      381.28       500      610      700      900      950      970     1000      129      960     1100   
                                          VAR    BASINP    GEOM    SYMINP    ZMAT    AOBASIS   BASIS     P2S    ABASIS      S 
                                         1400     1410     1200     1210     1080     1600     1650     1300     1700     1380   
                                           T        V       H0       H01     AOSYM     SMH    MOLCAS    ERIS     OPER     JKOP   
                                         7000     1380(1)
                                        PAPT AO   JKOP   

              2       5        1.12       700     1000      520     2100     7000   
                                         GEOM     BASIS   MCVARS     RHF     PAPT   

 PROGRAMS   *        TOTAL       MP4      PAPT    HF-SCF       INT
 CPU TIMES  *        30.18     21.83      2.12      1.05      5.09
 REAL TIME  *        33.54 SEC
 DISK USED  *       957.26 MB
 **********************************************************************************************************************************

 Dump information in style XML to xml output                                                                      

 Orbitals will not be exported.

 **********************************************************************************************************************************

 MP4/cc-pVTZ energy=   -155.764233872809

             MP4            PAPT          HF-SCF
   -155.76423387   -155.72567650   -154.97827164
 **********************************************************************************************************************************
 Molpro calculation terminated
