
 Working directory              : /var/folders/2v/xbgp75_9785319ghcgb4zr4r0000gr/T//molpro.uIf1Vq0l9F/
 Global scratch directory       : /var/folders/2v/xbgp75_9785319ghcgb4zr4r0000gr/T//molpro.uIf1Vq0l9F/
 Wavefunction directory         : /Users/peterk/wfu/
 Main file repository           : /var/folders/2v/xbgp75_9785319ghcgb4zr4r0000gr/T//molpro.uIf1Vq0l9F/

 id        : peterk

 Nodes        nprocs
 pjk2022.local    1
 GA implementation: MPI file
 GA implementation (serial work in mppx): MPI file

 Using customized tuning parameters: mindgm=1; mindgv=20; mindgc=4; mindgr=1; noblas=0; minvec=7
 default implementation of scratch files=df  


 Variables initialized (1037), CPU time= 0.00 sec
 
 
 
 geometry={
 7
  C    -0.2143504    0.9533214    0.0000000
  N    -0.1118448   -0.5782992    0.0000000
  H     0.8108410   -1.0328730    0.0000000
  H    -0.6149312   -0.9202851    0.8074929
  H    -0.6149312   -0.9202851   -0.8074929
  H     0.3726083    1.2492105    0.8729349
  H     0.3726083    1.2492105   -0.8729349
 }
 basis=cc-pVTZ
 core,small
 
 
 hf; ccsd(t)
 
 
 
 {put,xml;noorbitals,nobasis}
 Commands initialized (841), CPU time= 0.01 sec, 716 directives.
 Default parameters read. Elapsed time= 0.06 sec

 Checking input...
 Passed
1


                                         ***  PROGRAM SYSTEM MOLPRO  ***
                                       Copyright, TTI GmbH Stuttgart, 2015
                                    Version 2023.1 linked Sat Jul 22 07:59:25 2023


 **********************************************************************************************************************************
 LABEL *                                                                                                                                                                 
  64 bit serial version                                                                  DATE: 02-Aug-23          TIME: 14:54:17  
 **********************************************************************************************************************************

 SHA1:             401d111a1dbfa49388eacdf0424f85138b2d30d0
 **********************************************************************************************************************************

 Memory per process:      3146 MW
 Total memory per node:   4194 MW
 Total GA space:          1049 MW

 GA preallocation disabled
 GA check enabled

 Geometry recognized as XYZ


 Variable memory set to 3145.7 MW

 SETTING BASIS          =    CC-PVTZ


 Recomputing integrals since basis changed


 Using spherical harmonics

 Library entry C      S cc-pVTZ              selected for orbital group  1
 Library entry C      P cc-pVTZ              selected for orbital group  1
 Library entry C      D cc-pVTZ              selected for orbital group  1
 Library entry C      F cc-pVTZ              selected for orbital group  1
 Library entry N      S cc-pVTZ              selected for orbital group  2
 Library entry N      P cc-pVTZ              selected for orbital group  2
 Library entry N      D cc-pVTZ              selected for orbital group  2
 Library entry N      F cc-pVTZ              selected for orbital group  2
 Library entry H      S cc-pVTZ              selected for orbital group  3
 Library entry H      P cc-pVTZ              selected for orbital group  3
 Library entry H      D cc-pVTZ              selected for orbital group  3


 PROGRAM * SEWARD (Integral evaluation for generally contracted gaussian basis sets)     Author: Roland Lindh, 1990

 Geometry written to block  1 of record 700


 Point group  Cs  



 ATOMIC COORDINATES

 NR  ATOM    CHARGE       X              Y              Z

   1  C       6.00   -0.405063551    1.801516355    0.000000000
   2  N       7.00   -0.211356040   -1.092827106    0.000000000
   3  H       1.00    1.532267421   -1.951847092    0.000000000
   4  H       1.00   -1.162051553   -1.739086796    1.525940429
   5  H       1.00   -1.162051553   -1.739086796   -1.525940429
   6  H       1.00    0.704127639    2.360665717    1.649607886
   7  H       1.00    0.704127639    2.360665717   -1.649607886

 Bond lengths in Bohr (Angstrom)

 1-2  2.900818276  1-6  2.064984087  1-7  2.064984087  2-3  1.943743324  2-4  1.910488874
     ( 1.535046924)     ( 1.092742520)     ( 1.092742520)     ( 1.028584671)     ( 1.010987174)

 2-5  1.910488874
     ( 1.010987174)

 Bond angles

  1-2-3  120.05667508   1-2-4  107.71514152   1-2-5  107.71514152   2-1-6  103.55057035

  2-1-7  103.55057035   3-2-4  107.27096932   3-2-5  107.27096932   4-2-5  106.01556643

  6-1-7  106.04042148

 NUCLEAR CHARGE:                   18
 NUMBER OF PRIMITIVE AOS:         179
 NUMBER OF SYMMETRY AOS:          164
 NUMBER OF CONTRACTIONS:          130   (   78A'  +   52A"  )
 NUMBER OF INNER CORE ORBITALS:     0   (    0A'  +    0A"  )
 NUMBER OF OUTER CORE ORBITALS:     2   (    2A'  +    0A"  )
 NUMBER OF VALENCE ORBITALS:       13   (    9A'  +    4A"  )


 NUCLEAR REPULSION ENERGY   41.75965206

 Eigenvalues of metric

         1 0.120E-02 0.140E-02 0.236E-02 0.274E-02 0.414E-02 0.560E-02 0.809E-02 0.109E-01
         2 0.178E-02 0.279E-02 0.786E-02 0.107E-01 0.219E-01 0.297E-01 0.351E-01 0.423E-01


 Contracted 2-electron integrals neglected if value below      1.0D-11
 AO integral compression algorithm  1   Integral accuracy      1.0D-11

     93.848 MB (compressed) written to integral file ( 53.0%)


 NUMBER OF SORTED TWO-ELECTRON INTEGRALS:   18434806.     BUFFER LENGTH:  32768
 NUMBER OF SEGMENTS:   2  SEGMENT LENGTH:   15994654      RECORD LENGTH: 524288

 Memory used in sort:      16.55 MW

 SORT1 READ    22165393. AND WROTE    18266279. INTEGRALS IN     53 RECORDS. CPU TIME:     0.15 SEC, REAL TIME:     0.21 SEC
 SORT2 READ    18266279. AND WROTE    18434806. INTEGRALS IN    358 RECORDS. CPU TIME:     0.18 SEC, REAL TIME:     0.21 SEC

 FILE SIZES:   FILE 1:   124.4 MBYTE,  FILE 4:   222.4 MBYTE,   TOTAL:    346.8 MBYTE

 OPERATOR DM      FOR CENTER  0  COORDINATES:    0.000000    0.000000    0.000000


 **********************************************************************************************************************************
 DATASETS  * FILE   NREC   LENGTH (MB)   RECORD NAMES
              1      19      105.23       500      610      700      900      950      970     1000      129      960     1100   
                                          VAR    BASINP    GEOM    SYMINP    ZMAT    AOBASIS   BASIS     P2S    ABASIS      S 
                                         1400     1410     1200     1210     1080     1600     1650     1300     1700   
                                           T        V       H0       H01     AOSYM     SMH    MOLCAS    ERIS     OPER   

 PROGRAMS   *        TOTAL       INT
 CPU TIMES  *         1.41      1.31
 REAL TIME  *         2.31 SEC
 DISK USED  *       331.14 MB
 **********************************************************************************************************************************


 Program * Restricted Hartree-Fock

 Orbital guess generated from atomic densities. Full valence occupancy:   11   4

 Initial occupancy:   7   2

 NELEC=   18   SYM=1   MS2= 0   THRE=1.0D-08   THRD=3.2D-06   THRG=3.2D-06  HFMA2=F  DIIS_START=2   DIIS_MAX=10   DIIS_INCORE=F

 Level shifts:    0.00 (CLOSED)    0.00 (OPEN)    0.30 (GAP_MIN)

 ITER           ETOT              DE          GRAD        DDIFF     DIIS  NEXP   TIME(IT)  TIME(TOT)  DIAG
   1      -95.07230288     -95.07230288     0.00D+00     0.86D-01     0     0       0.05      0.10    start
   2      -95.13340839      -0.06110551     0.97D-02     0.13D-01     1     0       0.05      0.15    diag
   3      -95.14498566      -0.01157727     0.45D-02     0.46D-02     2     0       0.05      0.20    diag
   4      -95.14581795      -0.00083228     0.87D-03     0.11D-02     3     0       0.05      0.25    diag
   5      -95.14590516      -0.00008722     0.25D-03     0.39D-03     4     0       0.05      0.30    diag
   6      -95.14591676      -0.00001160     0.93D-04     0.16D-03     5     0       0.06      0.36    diag
   7      -95.14591850      -0.00000174     0.32D-04     0.66D-04     6     0       0.05      0.41    diag
   8      -95.14591872      -0.00000022     0.85D-05     0.27D-04     7     0       0.05      0.46    fixocc
   9      -95.14591874      -0.00000002     0.22D-05     0.72D-05     8     0       0.05      0.51    diag
  10      -95.14591874      -0.00000000     0.61D-06     0.22D-05     9     0       0.06      0.57    diag/orth
  11      -95.14591874      -0.00000000     0.15D-06     0.35D-06     0     0       0.05      0.62    diag

 Final occupancy:   7   2

 !RHF STATE 1.1 Energy                -95.145918740022
  RHF One-electron energy            -210.421815924503
  RHF Two-electron energy              73.516245126471
  RHF Kinetic energy                   95.081535563320
  RHF Nuclear energy                   41.759652058010
  RHF Virial quotient                  -1.000677136484

 !RHF STATE 1.1 Dipole moment           0.61318360    -2.10942790     0.00000000
 Dipole moment /Debye                   1.55855726    -5.36163092     0.00000000

 Orbital energies:

           1.1          2.1          3.1          4.1          5.1          6.1          7.1          8.1          9.1
    -15.660336   -11.155631    -1.268665    -0.851802    -0.730271    -0.557702    -0.263977     0.101968     0.170321

           1.2          2.2          3.2          4.2
     -0.736186    -0.470094     0.174307     0.257469


 HOMO      7.1    -0.263977 =      -7.1832eV
 LUMO      8.1     0.101968 =       2.7747eV
 LUMO-HOMO         0.365945 =       9.9579eV

 Orbitals saved in record  2100.2


 **********************************************************************************************************************************
 DATASETS  * FILE   NREC   LENGTH (MB)   RECORD NAMES
              1      19      105.23       500      610      700      900      950      970     1000      129      960     1100   
                                          VAR    BASINP    GEOM    SYMINP    ZMAT    AOBASIS   BASIS     P2S    ABASIS      S 
                                         1400     1410     1200     1210     1080     1600     1650     1300     1700   
                                           T        V       H0       H01     AOSYM     SMH    MOLCAS    ERIS     OPER   

              2       4        0.63       700     1000      520     2100   
                                         GEOM     BASIS   MCVARS     RHF  

 PROGRAMS   *        TOTAL    HF-SCF       INT
 CPU TIMES  *         2.03      0.62      1.31
 REAL TIME  *         3.06 SEC
 DISK USED  *       331.14 MB
 **********************************************************************************************************************************


 PROGRAM * CCSD (Closed-shell coupled cluster)     Authors: C. Hampel, H.-J. Werner, 1991, M. Deegan, P.J. Knowles, 1992


 CORETYPE=SMALL

 Convergence thresholds:  THRVAR = 1.00D-08  THRDEN = 1.00D-06

 CCSD(T)     terms to be evaluated (factor= 1.000)


 Number of closed-shell orbitals:   9 (   7   2 )
 Number of external orbitals:     121 (  71  50 )

 Molecular orbitals read from record     2100.2  Type=RHF/CANONICAL  

 Number of N-1 electron functions:               9
 Number of N-2 electron functions:              45
 Number of singly external CSFs:               597
 Number of doubly external CSFs:            299781
 Total number of CSFs:                      300379

 Length of J-op  integral file:               0.00 MB
 Length of K-op  integral file:               0.67 MB
 Length of 3-ext integral record:             0.00 MB

 Memory could be reduced to 11.05 Mwords without degradation in triples

 Integral transformation finished. Total CPU:   0.24 sec, npass=  1  Memory used:   3.94 MW

 Reference energy:                    -95.14591874

 MP2 singlet pair energy:              -0.29487738
 MP2 triplet pair energy:              -0.14154895
 MP2 correlation energy:               -0.43642633
 MP2 total energy:                    -95.58234507

 SCS-MP2 correlation energy:           -0.44192776   (PS=  1.200000  PT=  0.333333)
 SCS-MP2 total energy:                -95.58784650

 ITER.      SQ.NORM     CORR.ENERGY   TOTAL ENERGY   ENERGY CHANGE        DEN1      VAR(S)    VAR(P)  DIIS     TIME  TIME/IT
   1      1.13261400    -0.45976328   -95.60568202    -0.02333695    -0.01317635  0.11D-02  0.19D-02  1  1     2.71     0.35
   2      1.14156494    -0.46142454   -95.60734328    -0.00166125    -0.00964599  0.29D-04  0.21D-03  2  2     3.05     0.37
   3      1.14452558    -0.46153084   -95.60744958    -0.00010631    -0.00183026  0.11D-04  0.13D-04  3  3     3.39     0.38
   4      1.14544431    -0.46155384   -95.60747258    -0.00002300    -0.00041117  0.25D-05  0.14D-05  4  4     3.73     0.38
   5      1.14566167    -0.46155878   -95.60747752    -0.00000494    -0.00005021  0.14D-05  0.22D-06  5  5     4.06     0.38
   6      1.14576157    -0.46155909   -95.60747783    -0.00000030    -0.00001080  0.51D-06  0.77D-07  6  6     4.39     0.37
   7      1.14583429    -0.46155896   -95.60747770     0.00000013    -0.00000511  0.14D-06  0.20D-07  6  2     4.71     0.37
   8      1.14588170    -0.46155860   -95.60747734     0.00000036    -0.00000256  0.19D-07  0.33D-08  6  1     5.06     0.37
   9      1.14589617    -0.46155850   -95.60747724     0.00000010    -0.00000102  0.35D-08  0.60D-09  6  3     5.41     0.38

 Norm of t1 vector:      0.04758902      S-energy:     0.00000050      T1 diagnostic:  0.00793150
                                                                       D1 diagnostic:  0.02106474
                                                                       D2 diagnostic:  0.15218039 (internal)


 Total CPU time for triples:      4.64 sec


 RESULTS
 =======

  Reference energy                    -95.145918740022

  Correlated core orbitals:             1.1       2.1
  Orbital energies:                   -15.6603  -11.1556

  CCSD core-core energy                -0.018333845656
  CCSD core-valence energy             -0.012850481098
  CCSD valence correlation energy      -0.430374168283

  CCSD singlet pair energy             -0.330471412514
  CCSD triplet pair energy             -0.131087579673
  CCSD correlation energy              -0.461558495036

  Triples (T) contribution             -0.015790230867
  Total correlation energy             -0.477348725904

  CCSD total energy                   -95.607477235059
  CCSD[T] energy                      -95.623637717653
  CCSD-T energy                       -95.623085106213
 !CCSD(T) total energy                -95.623267465926

 Timing summary (sec):

 STEP                 CPU(USER)    SYS     CPU(TOT)    WALL
 Transformation          0.25      0.03      0.28      0.29
 CCSD iterations         5.18      0.25      5.43      3.40
 Triples                 4.64      0.20      4.84      4.97

 Program statistics:

 Available memory in ccsd:              3145727669
 Min. memory needed in ccsd:                875469
 Max. memory used in ccsd:                 1131497
 Max. memory used in cckext:               1176035 ( 9 integral passes)



 **********************************************************************************************************************************
 DATASETS  * FILE   NREC   LENGTH (MB)   RECORD NAMES
              1      20      140.58       500      610      700      900      950      970     1000      129      960     1100   
                                          VAR    BASINP    GEOM    SYMINP    ZMAT    AOBASIS   BASIS     P2S    ABASIS      S 
                                         1400     1410     1200     1210     1080     1600     1650     1300     1700     1380   
                                           T        V       H0       H01     AOSYM     SMH    MOLCAS    ERIS     OPER     JKOP   

              2       4        0.63       700     1000      520     2100   
                                         GEOM     BASIS   MCVARS     RHF  

 PROGRAMS   *        TOTAL   CCSD(T)    HF-SCF       INT
 CPU TIMES  *         9.98      7.95      0.62      1.31
 REAL TIME  *        11.76 SEC
 DISK USED  *       331.14 MB
 **********************************************************************************************************************************

 Dump information in style XML to xml output                                                                      

 Orbitals will not be exported.

 **********************************************************************************************************************************

 CCSD(T)/cc-pVTZ energy=    -95.623267465926

         CCSD(T)          HF-SCF
    -95.62326747    -95.14591874
 **********************************************************************************************************************************
 Molpro calculation terminated
