
 Working directory              : /var/folders/2v/xbgp75_9785319ghcgb4zr4r0000gr/T//molpro.Ru6n4LiASE/
 Global scratch directory       : /var/folders/2v/xbgp75_9785319ghcgb4zr4r0000gr/T//molpro.Ru6n4LiASE/
 Wavefunction directory         : /Users/peterk/wfu/
 Main file repository           : /var/folders/2v/xbgp75_9785319ghcgb4zr4r0000gr/T//molpro.Ru6n4LiASE/

 id        : peterk

 Nodes        nprocs
 pjk2022.local    1
 GA implementation: MPI file
 GA implementation (serial work in mppx): MPI file

 Using customized tuning parameters: mindgm=1; mindgv=20; mindgc=4; mindgr=1; noblas=0; minvec=7
 default implementation of scratch files=df  


 Variables initialized (1037), CPU time= 0.01 sec
 
 
 
 geometry={
 16
  C    -1.5509383   -0.3046782    0.7974216
  C    -2.9173600   -0.2572608    0.4520777
  C    -3.1153913    0.0500720   -0.8576504
  S    -1.6397192    0.3001116   -1.6704985
  C    -0.7216777   -0.0254094   -0.2541573
  C     0.7216777    0.0254094   -0.2541573
  S     1.6397192   -0.3001116   -1.6704985
  C     3.1153913   -0.0500720   -0.8576504
  C     2.9173600    0.2572608    0.4520777
  C     1.5509383    0.3046782    0.7974216
  H    -1.1822260   -0.5588506    1.7767451
  H    -3.7197698   -0.4531472    1.1427536
  H    -4.0457132    0.1435962   -1.3858704
  H     4.0457132   -0.1435962   -1.3858704
  H     3.7197698    0.4531472    1.1427536
  H     1.1822260    0.5588506    1.7767451
 }
 basis=cc-pVTZ
 core,small
 
 
 hf; papt;mp4
 
 
 
 {put,xml;noorbitals,nobasis}
 Commands initialized (841), CPU time= 0.00 sec, 716 directives.
 Default parameters read. Elapsed time= 0.05 sec

 Checking input...
 Passed
1


                                         ***  PROGRAM SYSTEM MOLPRO  ***
                                       Copyright, TTI GmbH Stuttgart, 2015
                                    Version 2023.1 linked Sat Jul 22 07:59:25 2023


 **********************************************************************************************************************************
 LABEL *                                                                                                                                                                 
  64 bit serial version                                                                  DATE: 02-Aug-23          TIME: 02:37:58  
 **********************************************************************************************************************************

 SHA1:             401d111a1dbfa49388eacdf0424f85138b2d30d0
 **********************************************************************************************************************************

 Memory per process:      3146 MW
 Total memory per node:   4194 MW
 Total GA space:          1049 MW

 GA preallocation disabled
 GA check enabled

 Geometry recognized as XYZ


 Variable memory set to 3145.7 MW

 SETTING BASIS          =    CC-PVTZ


 Recomputing integrals since basis changed


 Using spherical harmonics

 Library entry C      S cc-pVTZ              selected for orbital group  1
 Library entry C      P cc-pVTZ              selected for orbital group  1
 Library entry C      D cc-pVTZ              selected for orbital group  1
 Library entry C      F cc-pVTZ              selected for orbital group  1
 Library entry S      S cc-pVTZ              selected for orbital group  2
 Library entry S      P cc-pVTZ              selected for orbital group  2
 Library entry S      D cc-pVTZ              selected for orbital group  2
 Library entry S      F cc-pVTZ              selected for orbital group  2
 Library entry H      S cc-pVTZ              selected for orbital group  4
 Library entry H      P cc-pVTZ              selected for orbital group  4
 Library entry H      D cc-pVTZ              selected for orbital group  4


 PROGRAM * SEWARD (Integral evaluation for generally contracted gaussian basis sets)     Author: Roland Lindh, 1990

 Geometry written to block  1 of record 700


 Point group  C2  



 ATOMIC COORDINATES

 NR  ATOM    CHARGE       X              Y              Z

   1  C       6.00   -2.930848623   -0.575758354    1.506908430
   2  C       6.00    2.930848623    0.575758354    1.506908430
   3  C       6.00   -5.513011407   -0.486152455    0.854303040
   4  C       6.00    5.513011407    0.486152455    0.854303040
   5  C       6.00   -5.887236328    0.094622367   -1.620724367
   6  C       6.00    5.887236328   -0.094622367   -1.620724367
   7  S      16.00   -3.098620209    0.567128731   -3.156784657
   8  S      16.00    3.098620209   -0.567128731   -3.156784657
   9  C       6.00   -1.363773203   -0.048016807   -0.480287690
  10  C       6.00    1.363773203    0.048016807   -0.480287690
  11  H       1.00   -2.234083357   -1.056074579    3.357561632
  12  H       1.00    2.234083357    1.056074579    3.357561632
  13  H       1.00   -7.029346169   -0.856324102    2.159491332
  14  H       1.00    7.029346169    0.856324102    2.159491332
  15  H       1.00   -7.645289927    0.271357491   -2.618915500
  16  H       1.00    7.645289927   -0.271357491   -2.618915500

 Bond lengths in Bohr (Angstrom)

  1- 3  2.664861658   1- 9  2.585185666   1-11  2.034969972   2- 4  2.664861658   2-10  2.585185666
       ( 1.410184059)       ( 1.368021341)       ( 1.076859734)       ( 1.410184059)       ( 1.368021341)

  2-12  2.034969972   3- 5  2.569650628   3-13  2.034653444   4- 6  2.569650628   4-14  2.034653444
       ( 1.076859734)       ( 1.359800552)       ( 1.076692234)       ( 1.359800552)       ( 1.076692234)

  5- 7  3.218559202   5-15  2.029377564   6- 8  3.218559202   6-16  2.029377564   7- 9  3.248343298
       ( 1.703188182)       ( 1.073900359)       ( 1.703188182)       ( 1.073900359)       ( 1.718949246)

  8-10  3.248343298   9-10  2.729236497
       ( 1.718949246)       ( 1.444249757)

 Bond angles

  1- 3- 5  112.61815700   1- 3-13  123.98085311   1- 9- 7  110.38229586   1- 9-10  127.80550087

  2- 4- 6  112.61815700   2- 4-14  123.98085311   2-10- 8  110.38229586   2-10- 9  127.80550087

  3- 1- 9  113.09481155   3- 1-11  124.22321755   3- 5- 7  111.51091915   3- 5-15  128.28716095

  4- 2-10  113.09481155   4- 2-12  124.22321755   4- 6- 8  111.51091915   4- 6-16  128.28716095

  5- 3-13  123.39747657   5- 7- 9   92.38953509   6- 4-14  123.39747657   6- 8-10   92.38953509

  7- 5-15  120.20187923   7- 9-10  121.80818252   8- 6-16  120.20187923   8-10- 9  121.80818252

  9- 1-11  122.66282548  10- 2-12  122.66282548

 NUCLEAR CHARGE:                   86
 NUMBER OF PRIMITIVE AOS:         606
 NUMBER OF SYMMETRY AOS:          550
 NUMBER OF CONTRACTIONS:          392   (  196A   +  196B   )
 NUMBER OF INNER CORE ORBITALS:     2   (    1A   +    1B   )
 NUMBER OF OUTER CORE ORBITALS:    16   (    8A   +    8B   )
 NUMBER OF VALENCE ORBITALS:       46   (   23A   +   23B   )


 NUCLEAR REPULSION ENERGY  639.94940090


 Eigenvalues of metric

         1 0.950E-04 0.510E-03 0.772E-03 0.945E-03 0.996E-03 0.126E-02 0.127E-02 0.135E-02
         2 0.659E-04 0.978E-04 0.457E-03 0.606E-03 0.822E-03 0.909E-03 0.112E-02 0.121E-02


 Contracted 2-electron integrals neglected if value below      1.0D-11
 AO integral compression algorithm  1   Integral accuracy      1.0D-11

     6231.163 MB (compressed) written to integral file ( 46.9%)


 NUMBER OF SORTED TWO-ELECTRON INTEGRALS: 1490905850.     BUFFER LENGTH:  32768
 NUMBER OF SEGMENTS:  47  SEGMENT LENGTH:   31999968      RECORD LENGTH: 524288

 Memory used in sort:      32.56 MW

 SORT1 READ  1662292048. AND WROTE  1436425627. INTEGRALS IN   4136 RECORDS. CPU TIME:    15.46 SEC, REAL TIME:    19.64 SEC
 SORT2 READ  1436425627. AND WROTE  1490905850. INTEGRALS IN  23770 RECORDS. CPU TIME:     8.69 SEC, REAL TIME:    18.76 SEC

 FILE SIZES:   FILE 1:  6265.3 MBYTE,  FILE 4: 17347.7 MBYTE,   TOTAL:  23613.0 MBYTE

 OPERATOR DM      FOR CENTER  0  COORDINATES:    0.000000    0.000000    0.000000


 **********************************************************************************************************************************
 DATASETS  * FILE   NREC   LENGTH (MB)   RECORD NAMES
              1      19     5614.62       500      610      700      900      950      970     1000      129      960     1100   
                                          VAR    BASINP    GEOM    SYMINP    ZMAT    AOBASIS   BASIS     P2S    ABASIS      S 
                                         1400     1410     1200     1210     1080     1600     1650     1300     1700   
                                           T        V       H0       H01     AOSYM     SMH    MOLCAS    ERIS     OPER   

 PROGRAMS   *        TOTAL       INT
 CPU TIMES  *        72.41     72.32
 REAL TIME  *        89.89 SEC
 DISK USED  *        21.99 GB
 **********************************************************************************************************************************


 Program * Restricted Hartree-Fock

 Orbital guess generated from atomic densities. Full valence occupancy:   32  32

 Initial occupancy:  22  21

 NELEC=   86   SYM=1   MS2= 0   THRE=1.0D-08   THRD=3.2D-06   THRG=3.2D-06  HFMA2=F  DIIS_START=2   DIIS_MAX=10   DIIS_INCORE=F

 Level shifts:    0.00 (CLOSED)    0.00 (OPEN)    0.30 (GAP_MIN)

 ITER           ETOT              DE          GRAD        DDIFF     DIIS  NEXP   TIME(IT)  TIME(TOT)  DIAG
   1    -1101.47257604   -1101.47257604     0.00D+00     0.63D-01     0     0       4.34      8.42    start
   2    -1101.56202702      -0.08945098     0.33D-02     0.58D-02     1     0       4.60     13.02    diag
   3    -1101.59534734      -0.03332032     0.21D-02     0.25D-02     2     0       4.50     17.52    diag
   4    -1101.59959386      -0.00424652     0.52D-03     0.10D-02     3     0       4.62     22.14    diag
   5    -1101.59994719      -0.00035333     0.15D-03     0.25D-03     4     0       4.61     26.75    diag
   6    -1101.60007014      -0.00012295     0.78D-04     0.14D-03     5     0       4.39     31.14    diag
   7    -1101.60011206      -0.00004192     0.33D-04     0.10D-03     6     0       4.23     35.37    diag
   8    -1101.60011637      -0.00000431     0.12D-04     0.34D-04     7     0       4.19     39.56    fixocc
   9    -1101.60011678      -0.00000041     0.40D-05     0.12D-04     8     0       4.17     43.73    diag
  10    -1101.60011680      -0.00000002     0.83D-06     0.24D-05     9     0       4.21     47.94    diag/orth
  11    -1101.60011680      -0.00000000     0.34D-06     0.74D-06     9     0       4.22     52.16    diag
  12    -1101.60011680      -0.00000000     0.11D-06     0.22D-06     0     0       4.25     56.41    diag

 Final occupancy:  22  21

 !RHF STATE 1.1 Energy              -1101.600116803174
  RHF One-electron energy           -2785.447571259287
  RHF Two-electron energy            1043.898053556953
  RHF Kinetic energy                 1101.437830063041
  RHF Nuclear energy                  639.949400899159
  RHF Virial quotient                  -1.000147340808

 !RHF STATE 1.1 Dipole moment           0.00000000     0.00000000     0.50597773
 Dipole moment /Debye                   0.00000000     0.00000000     1.28606712

 Orbital energies:

           1.1          2.1          3.1          4.1          5.1          6.1          7.1          8.1          9.1         10.1
    -91.983167   -11.273943   -11.259421   -11.237062   -11.235637    -8.985147    -6.666147    -6.665605    -6.664816    -1.198813

          11.1         12.1         13.1         14.1         15.1         16.1         17.1         18.1         19.1         20.1
     -1.037425    -0.998747    -0.808862    -0.777316    -0.708261    -0.576262    -0.569773    -0.540551    -0.513989    -0.485557

          21.1         22.1         23.1         24.1
     -0.347244    -0.285472     0.140805     0.149479

           1.2          2.2          3.2          4.2          5.2          6.2          7.2          8.2          9.2         10.2
    -91.983167   -11.273067   -11.259421   -11.237063   -11.235643    -8.985149    -6.666149    -6.665605    -6.664815    -1.169427

          11.2         12.2         13.2         14.2         15.2         16.2         17.2         18.2         19.2         20.2
     -0.984079    -0.952008    -0.747717    -0.717831    -0.645192    -0.561388    -0.554275    -0.512092    -0.465996    -0.374066

          21.2         22.2         23.2
     -0.352368     0.078970     0.152763


 HOMO     22.1    -0.285472 =      -7.7681eV
 LUMO     22.2     0.078970 =       2.1489eV
 LUMO-HOMO         0.364442 =       9.9170eV

 Orbitals saved in record  2100.2


 **********************************************************************************************************************************
 DATASETS  * FILE   NREC   LENGTH (MB)   RECORD NAMES
              1      19     5614.62       500      610      700      900      950      970     1000      129      960     1100   
                                          VAR    BASINP    GEOM    SYMINP    ZMAT    AOBASIS   BASIS     P2S    ABASIS      S 
                                         1400     1410     1200     1210     1080     1600     1650     1300     1700   
                                           T        V       H0       H01     AOSYM     SMH    MOLCAS    ERIS     OPER   

              2       4        1.88       700     1000      520     2100   
                                         GEOM     BASIS   MCVARS     RHF  

 PROGRAMS   *        TOTAL    HF-SCF       INT
 CPU TIMES  *       128.83     56.42     72.32
 REAL TIME  *       154.43 SEC
 DISK USED  *        21.99 GB
 **********************************************************************************************************************************


 PROGRAM * PAPT (Closed-shell)     Authors: C. Hampel, H.-J. Werner, 1991, P.J. Knowles, 2021


 CORETYPE=SMALL

 Convergence thresholds:  THRVAR = 1.00D-08  THRDEN = 1.00D-06

 Number of core orbitals:           2 (   1   1 )
 Number of closed-shell orbitals:  41 (  21  20 )
 Number of external orbitals:     349 ( 174 175 )

 Molecular orbitals read from record     2100.2  Type=RHF/CANONICAL  

 Checking core orbitals using projection, core_type=SMALL
 Threshold for active space selection:  0.30


 Number of target functions:              2   (   1   1 )

 Number of N-1 electron functions:              41
 Number of N-2 electron functions:             861
 Number of singly external CSFs:              7154
 Number of doubly external CSFs:          51194025
 Total number of CSFs:                    51201180

 Length of J-op  integral file:               0.00 MB
 Length of K-op  integral file:               5.34 MB

 Integral transformation finished. Total CPU:  34.56 sec, npass=  1  Memory used:  76.04 MW

 Reference energy:                  -1101.60011680

                        CORR.ENERGY   TOTAL ENERGY   ENERGY CHANGE
 MP2:                   -1.81207900 -1103.41219581    -1.81207900

 SCS-MP2 correlation energy:           -1.77276972   (PS=  1.200000  PT=  0.333333)
 SCS-MP2 total energy:              -1103.37288653
 Iteration:   1     0.3054D+00
 Iteration:   2     0.1445D+01
 Iteration:   3     0.1332D+00
 Iteration:   4     0.5413D+00
 Iteration:   5     0.4944D-01
 Iteration:   6     0.2993D+00
 Iteration:   7     0.1996D-01
 Iteration:   8     0.1073D+01
 Iteration:   9     0.7173D-02
 Iteration:  10     0.6435D-02
 Iteration:  11     0.3068D-02
 Iteration:  12     0.7080D-03
 Iteration:  13     0.2885D-02
 Iteration:  14     0.2428D-03
 Iteration:  15     0.1182D-02
 Iteration:  16     0.1009D-03
 Iteration:  17     0.1305D-03
 Iteration:  18     0.5339D-04
 PAPT operator written to  7000.1
 PAPT orbitals and eigenvalues written to  7000.2

 MP3(D):                -1.84189609 -1103.44201290    -0.02981709



 RESULTS
 =======

  Reference energy                  -1101.600116803168

  Correlated core orbitals:             2.1       3.1       4.1       5.1       6.1       7.1       8.1       9.1       2.2       3.2
                                        4.2       5.2       6.2       7.2       8.2       9.2
  Orbital energies:                   -11.2739  -11.2594  -11.2371  -11.2356   -8.9851   -6.6661   -6.6656   -6.6648  -11.2731  -11.2594
                                      -11.2371  -11.2356   -8.9851   -6.6661   -6.6656   -6.6648

  MP3 core-core energy                 -0.128531929858
  MP3 core-valence energy              -0.074958957760
  MP3 valence correlation energy       -1.638405207161

  MP3 singlet pair energy              -1.205033994375
  MP3 triplet pair energy              -0.636862100403
  MP3 correlation energy               -1.841896094778

 !MP3 total energy                  -1103.442012897946

 Timing summary (sec):

 STEP                 CPU(USER)    SYS     CPU(TOT)    WALL
 Transformation         36.03      2.84     38.87     37.82
 CCSD iterations       549.56      5.42    554.98    403.20

 Program statistics:

 Available memory in ccsd:              3145721254
 Min. memory needed in ccsd:             115807495
 Max. memory used in ccsd:               165099878
 Max. memory used in cckext:             140596280 ( 1 integral passes)



 **********************************************************************************************************************************
 DATASETS  * FILE   NREC   LENGTH (MB)   RECORD NAMES
              1      21     6373.82       500      610      700      900      950      970     1000      129      960     1100   
                                          VAR    BASINP    GEOM    SYMINP    ZMAT    AOBASIS   BASIS     P2S    ABASIS      S 
                                         1400     1410     1200     1210     1080     1600     1650     1300     1700     1380   
                                           T        V       H0       H01     AOSYM     SMH    MOLCAS    ERIS     OPER     JKOP   
                                         7000   
                                        PAPT AO    

              2       5        3.74       700     1000      520     2100     7000   
                                         GEOM     BASIS   MCVARS     RHF     PAPT   

 PROGRAMS   *        TOTAL      PAPT    HF-SCF       INT
 CPU TIMES  *       585.52    456.69     56.42     72.32
 REAL TIME  *       595.51 SEC
 DISK USED  *        21.99 GB
 **********************************************************************************************************************************


 PROGRAM * MP4 (Closed-shell)     Authors: C. Hampel, H.-J. Werner, 1991, M. Deegan, P.J. Knowles, 1992


 CORETYPE=SMALL

 Convergence thresholds:  THRVAR = 1.00D-08  THRDEN = 1.00D-06

 MP4(T)     terms to be evaluated (factor= 0.000)


 Number of core orbitals:           2 (   1   1 )
 Number of closed-shell orbitals:  41 (  21  20 )
 Number of external orbitals:     349 ( 174 175 )

 Molecular orbitals read from record     7000.2  Type=PAPT/CANONICAL (state 1.1)

 Checking core orbitals using projection, core_type=SMALL
 Threshold for active space selection:  0.30


 Number of target functions:              2   (   1   1 )

 Number of N-1 electron functions:              41
 Number of N-2 electron functions:             861
 Number of singly external CSFs:              7154
 Number of doubly external CSFs:          51194025
 Total number of CSFs:                    51201180

 Length of J-op  integral file:               0.00 MB
 Length of K-op  integral file:               5.34 MB

 Memory could be reduced to 1029.59 Mwords without degradation in triples

 Integral transformation finished. Total CPU: 152.47 sec, npass=  1  Memory used: 546.61 MW
 Orbital energies read from record       7000.2  Type=PAPT/CANONICAL (state 1.1)

 Reference energy:                  -1101.60011680

                        CORR.ENERGY   TOTAL ENERGY   ENERGY CHANGE
 MP2:                   -1.85783898 -1103.45795579    -1.85783898

 SCS-MP2 correlation energy:           -1.82860645   (PS=  1.200000  PT=  0.333333)
 SCS-MP2 total energy:              -1103.42872326

 MP3(D):                -1.85837836 -1103.45849517    -0.00053938
 MP4(DQ):               -1.82637167 -1103.42648847     0.03200669
 MP4(SDQ):              -1.84058467 -1103.44070147    -0.01421300

 Norm of t1 vector:      0.10072190      S-energy:    -0.01421300      T1 diagnostic:  0.00786506

 Largest off-diagonal element in interal  block of Fock matrix:  0.17D+00
 Largest off-diagonal element in external block of Fock matrix:  0.24D+00

   CPU time for triples:   1830.42 sec for i =  1 - 21 / 41 (~  14.2 % done)
   CPU time for triples:   2097.48 sec for i = 22 - 28 / 41 (~  32.8 % done)
   CPU time for triples:   2321.83 sec for i = 29 - 33 / 41 (~  52.9 % done)
   CPU time for triples:   2043.26 sec for i = 34 - 37 / 41 (~  74.0 % done)
   CPU time for triples:   2035.13 sec for i = 38 - 41 / 41 (  100.0 % done)

 Total CPU time for triples:  10328.12 sec


 RESULTS
 =======

  Reference energy                  -1101.600116803168

  Correlated core orbitals:             2.1       3.1       4.1       5.1       6.1       7.1       8.1       9.1       2.2       3.2
                                        4.2       5.2       6.2       7.2       8.2       9.2
  Orbital energies:                   -10.6834  -10.6539  -10.6387  -10.6359   -8.9667   -6.9479   -7.0051   -7.0624  -10.6822  -10.6538
                                      -10.6386  -10.6360   -8.9668   -6.9481   -7.0054   -7.0622

  MP4(SDQ) core-core energy            -0.130005499362
  MP4(SDQ) core-valence energy         -0.074738868150
  MP4(SDQ) valence correlation ener    -1.635840302926

  MP4(SDQ) singlet pair energy         -1.196885487403
  MP4(SDQ) triplet pair energy         -0.629486184395
  MP4(SDQ) correlation energy          -1.840584670438

  Triples contribution                 -0.110313474282
  Total correlation energy             -1.950898144721

  MP4(SDQ) total energy             -1103.440701473606
 !MP4(SDTQ) total energy            -1103.551014947889

 Timing summary (sec):

 STEP                 CPU(USER)    SYS     CPU(TOT)    WALL
 Transformation        158.78      6.33    165.11    164.77
 CCSD iterations       984.91      6.28    991.19    385.79
 Triples             10328.12    334.86  10662.98  10741.52

 Program statistics:

 Available memory in ccsd:              3145721254
 Min. memory needed in ccsd:             115807495
 Max. memory used in ccsd:               165099878
 Max. memory used in cckext:             140596280 ( 1 integral passes)



 **********************************************************************************************************************************
 DATASETS  * FILE   NREC   LENGTH (MB)   RECORD NAMES
              1      22     9707.57       500      610      700      900      950      970     1000      129      960     1100   
                                          VAR    BASINP    GEOM    SYMINP    ZMAT    AOBASIS   BASIS     P2S    ABASIS      S 
                                         1400     1410     1200     1210     1080     1600     1650     1300     1700     1380   
                                           T        V       H0       H01     AOSYM     SMH    MOLCAS    ERIS     OPER     JKOP   
                                         7000     1380(1)
                                        PAPT AO   JKOP   

              2       5        3.74       700     1000      520     2100     7000   
                                         GEOM     BASIS   MCVARS     RHF     PAPT   

 PROGRAMS   *        TOTAL       MP4      PAPT    HF-SCF       INT
 CPU TIMES  *     11471.73  10886.21    456.69     56.42     72.32
 REAL TIME  *     11887.63 SEC
 DISK USED  *        21.99 GB
 **********************************************************************************************************************************

 Dump information in style XML to xml output                                                                      

 Orbitals will not be exported.

 **********************************************************************************************************************************

 MP4/cc-pVTZ energy=  -1103.551014947889

             MP4            PAPT          HF-SCF
  -1103.55101495  -1103.44201290  -1101.60011680
 **********************************************************************************************************************************
 Molpro calculation terminated
