
 Working directory              : /var/folders/2v/xbgp75_9785319ghcgb4zr4r0000gr/T//molpro.4Uwh7sUA4E/
 Global scratch directory       : /var/folders/2v/xbgp75_9785319ghcgb4zr4r0000gr/T//molpro.4Uwh7sUA4E/
 Wavefunction directory         : /Users/peterk/wfu/
 Main file repository           : /var/folders/2v/xbgp75_9785319ghcgb4zr4r0000gr/T//molpro.4Uwh7sUA4E/

 id        : peterk

 Nodes        nprocs
 pjk2022.local    1
 GA implementation: MPI file
 GA implementation (serial work in mppx): MPI file

 Using customized tuning parameters: mindgm=1; mindgv=20; mindgc=4; mindgr=1; noblas=0; minvec=7
 default implementation of scratch files=df  


 Variables initialized (1037), CPU time= 0.00 sec
 
 
 
 geometry={
 20
  C    -0.0187703    0.7762139    0.1895647
  C     0.0187703   -0.7762139    0.1895647
  C     1.1577036   -1.2575558    1.0753312
  H    -0.9139647   -1.1210949    0.6423436
  C     0.1078564   -1.4161726   -1.1853194
  C    -0.1078564    1.4161726   -1.1853194
  H     0.9139647    1.1210949    0.6423436
  C    -1.1577036    1.2575558    1.0753312
  H     0.0191030    2.4918657   -1.1130497
  H     0.6550032    1.0414043   -1.8618886
  H    -1.0780969    1.2248344   -1.6480076
  H    -0.0191030   -2.4918657   -1.1130497
  H    -0.6550032   -1.0414043   -1.8618886
  H     1.0780969   -1.2248344   -1.6480076
  H     1.1872672   -2.3424319    1.1524796
  H     2.1123185   -0.9254986    0.6672670
  H     1.0674291   -0.8480126    2.0803607
  H    -1.1872672    2.3424319    1.1524796
  H    -2.1123185    0.9254986    0.6672670
  H    -1.0674291    0.8480126    2.0803607
 }
 basis=cc-pVTZ
 core,small
 
 
 hf; papt;mp2
 
 
 
 {put,xml;noorbitals,nobasis}
 Commands initialized (841), CPU time= 0.00 sec, 716 directives.
 Default parameters read. Elapsed time= 0.05 sec

 Checking input...
 Passed
1


                                         ***  PROGRAM SYSTEM MOLPRO  ***
                                       Copyright, TTI GmbH Stuttgart, 2015
                                    Version 2023.1 linked Sat Jul 22 07:59:25 2023


 **********************************************************************************************************************************
 LABEL *                                                                                                                                                                 
  64 bit serial version                                                                  DATE: 01-Aug-23          TIME: 21:49:32  
 **********************************************************************************************************************************

 SHA1:             401d111a1dbfa49388eacdf0424f85138b2d30d0
 **********************************************************************************************************************************

 Memory per process:      3146 MW
 Total memory per node:   4194 MW
 Total GA space:          1049 MW

 GA preallocation disabled
 GA check enabled

 Geometry recognized as XYZ


 Variable memory set to 3145.7 MW

 SETTING BASIS          =    CC-PVTZ


 Recomputing integrals since basis changed


 Using spherical harmonics

 Library entry C      S cc-pVTZ              selected for orbital group  1
 Library entry C      P cc-pVTZ              selected for orbital group  1
 Library entry C      D cc-pVTZ              selected for orbital group  1
 Library entry C      F cc-pVTZ              selected for orbital group  1
 Library entry H      S cc-pVTZ              selected for orbital group  2
 Library entry H      P cc-pVTZ              selected for orbital group  2
 Library entry H      D cc-pVTZ              selected for orbital group  2


 PROGRAM * SEWARD (Integral evaluation for generally contracted gaussian basis sets)     Author: Roland Lindh, 1990

 Geometry written to block  1 of record 700


 Point group  C2  



 ATOMIC COORDINATES

 NR  ATOM    CHARGE       X              Y              Z

   1  C       6.00   -0.035470726    1.466831685    0.358225366
   2  C       6.00    0.035470726   -1.466831685    0.358225366
   3  C       6.00    2.187742737   -2.376436048    2.032081461
   4  C       6.00   -2.187742737    2.376436048    2.032081461
   5  H       1.00   -1.727142971   -2.118562321    1.213853482
   6  H       1.00    1.727142971    2.118562321    1.213853482
   7  C       6.00    0.203819057   -2.676178359   -2.239929036
   8  C       6.00   -0.203819057    2.676178359   -2.239929036
   9  H       1.00    0.036099438    4.708943712   -2.103359096
  10  H       1.00   -0.036099438   -4.708943712   -2.103359096
  11  H       1.00    1.237776659    1.967968912   -3.518459529
  12  H       1.00   -1.237776659   -1.967968912   -3.518459529
  13  H       1.00   -2.037307877    2.314601564   -3.114283015
  14  H       1.00    2.037307877   -2.314601564   -3.114283015
  15  H       1.00    2.243609845   -4.426554757    2.177870808
  16  H       1.00   -2.243609845    4.426554757    2.177870808
  17  H       1.00    3.991703453   -1.748938883    1.260951882
  18  H       1.00   -3.991703453    1.748938883    1.260951882
  19  H       1.00    2.017148656   -1.602511564    3.931311963
  20  H       1.00   -2.017148656    1.602511564    3.931311963

 Bond lengths in Bohr (Angstrom)

 1-2  2.934520993  1-4  2.874273671  1-6  2.064863031  1-8  2.870760672  2-3  2.874273671
     ( 1.552881635)     ( 1.521000125)     ( 1.092678460)     ( 1.519141126)     ( 1.521000125)

  2- 5  2.064863031   2- 7  2.870760672   3-15  2.056055054   3-17  2.059773722   3-19  2.057945079
       ( 1.092678460)       ( 1.519141126)       ( 1.088017479)       ( 1.089985313)       ( 1.089017637)

  4-16  2.056055054   4-18  2.059773722   4-20  2.057945079   7-10  2.051425654   7-12  2.052900155
       ( 1.088017479)       ( 1.089985313)       ( 1.089017637)       ( 1.085567706)       ( 1.086347978)

  7-14  2.063229002   8- 9  2.051425654   8-11  2.052900155   8-13  2.063229002
       ( 1.091813768)       ( 1.085567706)       ( 1.086347978)       ( 1.091813768)

 Bond angles

  1- 2- 3  109.54054388   1- 2- 5  107.15157666   1- 2- 7  114.99619341   1- 4-16  112.15975412

  1- 4-18  109.96086858   1- 4-20  110.87686538   1- 8- 9  110.50699899   1- 8-11  112.15692769

  1- 8-13  111.21228658   2- 1- 4  109.54054388   2- 1- 6  107.15157666   2- 1- 8  114.99619341

  2- 3-15  112.15975412   2- 3-17  109.96086858   2- 3-19  110.87686538   2- 7-10  110.50699899

  2- 7-12  112.15692769   2- 7-14  111.21228658   3- 2- 5  107.33735912   3- 2- 7  110.47697507

  4-1-6  107.33735912   4-1-8  110.47697507   5-2-7  106.98503092   6-1-8  106.98503092

  9- 8-11  107.52829003   9- 8-13  107.80604445  10- 7-12  107.52829003  10- 7-14  107.80604445

 11- 8-13  107.43645239  12- 7-14  107.43645239  15- 3-17  107.84919901  15- 3-19  108.16741034

 16- 4-18  107.84919901  16- 4-20  108.16741034  17- 3-19  107.67015472  18- 4-20  107.67015472

 NUCLEAR CHARGE:                   50
 NUMBER OF PRIMITIVE AOS:         520
 NUMBER OF SYMMETRY AOS:          476
 NUMBER OF CONTRACTIONS:          376   (  188A   +  188B   )
 NUMBER OF INNER CORE ORBITALS:     0   (    0A   +    0B   )
 NUMBER OF OUTER CORE ORBITALS:     6   (    3A   +    3B   )
 NUMBER OF VALENCE ORBITALS:       38   (   19A   +   19B   )


 NUCLEAR REPULSION ENERGY  263.96192097


 Eigenvalues of metric

         1 0.699E-03 0.795E-03 0.879E-03 0.113E-02 0.118E-02 0.133E-02 0.142E-02 0.158E-02
         2 0.296E-03 0.660E-03 0.968E-03 0.109E-02 0.111E-02 0.116E-02 0.130E-02 0.144E-02


 Contracted 2-electron integrals neglected if value below      1.0D-11
 AO integral compression algorithm  1   Integral accuracy      1.0D-11

     5035.262 MB (compressed) written to integral file ( 45.5%)


 NUMBER OF SORTED TWO-ELECTRON INTEGRALS: 1262540790.     BUFFER LENGTH:  32768
 NUMBER OF SEGMENTS:  40  SEGMENT LENGTH:   31999469      RECORD LENGTH: 524288

 Memory used in sort:      32.56 MW

 SORT1 READ  1382177120. AND WROTE  1186985156. INTEGRALS IN   3416 RECORDS. CPU TIME:    12.93 SEC, REAL TIME:    16.49 SEC
 SORT2 READ  1186985156. AND WROTE  1262540790. INTEGRALS IN  19208 RECORDS. CPU TIME:     6.85 SEC, REAL TIME:    19.81 SEC

 FILE SIZES:   FILE 1:  5069.1 MBYTE,  FILE 4: 14327.8 MBYTE,   TOTAL:  19396.9 MBYTE

 OPERATOR DM      FOR CENTER  0  COORDINATES:    0.000000    0.000000    0.000000


 **********************************************************************************************************************************
 DATASETS  * FILE   NREC   LENGTH (MB)   RECORD NAMES
              1      19     4651.10       500      610      700      900      950      970     1000      129      960     1100   
                                          VAR    BASINP    GEOM    SYMINP    ZMAT    AOBASIS   BASIS     P2S    ABASIS      S 
                                         1400     1410     1200     1210     1080     1600     1650     1300     1700   
                                           T        V       H0       H01     AOSYM     SMH    MOLCAS    ERIS     OPER   

 PROGRAMS   *        TOTAL       INT
 CPU TIMES  *        66.61     66.53
 REAL TIME  *        85.97 SEC
 DISK USED  *        18.07 GB
 **********************************************************************************************************************************


 Program * Restricted Hartree-Fock

 Orbital guess generated from atomic densities. Full valence occupancy:   22  22

 Initial occupancy:  13  12

 NELEC=   50   SYM=1   MS2= 0   THRE=1.0D-08   THRD=3.2D-06   THRG=3.2D-06  HFMA2=F  DIIS_START=2   DIIS_MAX=10   DIIS_INCORE=F

 Level shifts:    0.00 (CLOSED)    0.00 (OPEN)    0.30 (GAP_MIN)

 ITER           ETOT              DE          GRAD        DDIFF     DIIS  NEXP   TIME(IT)  TIME(TOT)  DIAG
   1     -235.34661327    -235.34661327     0.00D+00     0.52D-01     0     0       3.49      6.69    start
   2     -235.42753421      -0.08092093     0.37D-02     0.51D-02     1     0       3.53     10.22    diag
   3     -235.43804877      -0.01051457     0.14D-02     0.16D-02     2     0       3.51     13.73    diag
   4     -235.43970136      -0.00165259     0.47D-03     0.58D-03     3     0       3.53     17.26    diag
   5     -235.43975125      -0.00004989     0.89D-04     0.13D-03     4     0       3.54     20.80    diag
   6     -235.43975629      -0.00000504     0.27D-04     0.51D-04     5     0       3.60     24.40    diag
   7     -235.43975642      -0.00000013     0.34D-05     0.97D-05     6     0       3.61     28.01    diag
   8     -235.43975643      -0.00000001     0.75D-06     0.17D-05     7     0       3.61     31.62    fixocc
   9     -235.43975643      -0.00000000     0.21D-06     0.37D-06     0     0       3.50     35.12    diag

 Final occupancy:  13  12

 !RHF STATE 1.1 Energy               -235.439756428552
  RHF One-electron energy            -839.500679906362
  RHF Two-electron energy             340.099002507497
  RHF Kinetic energy                  235.351043500414
  RHF Nuclear energy                  263.961920970312
  RHF Virial quotient                  -1.000376938750

 !RHF STATE 1.1 Dipole moment           0.00000000     0.00000000     0.01165708
 Dipole moment /Debye                   0.00000000     0.00000000     0.02962934

 Orbital energies:

           1.1          2.1          3.1          4.1          5.1          6.1          7.1          8.1          9.1         10.1
    -11.217070   -11.205042   -11.203519    -1.104519    -0.938961    -0.826900    -0.624044    -0.605444    -0.559657    -0.533207

          11.1         12.1         13.1         14.1         15.1
     -0.489654    -0.440656    -0.435315     0.137945     0.170224

           1.2          2.2          3.2          4.2          5.2          6.2          7.2          8.2          9.2         10.2
    -11.216513   -11.205042   -11.203526    -1.014346    -0.917135    -0.746818    -0.625195    -0.551357    -0.537161    -0.519019

          11.2         12.2         13.2         14.2
     -0.484229    -0.447016     0.164349     0.168392


 HOMO     13.1    -0.435315 =     -11.8455eV
 LUMO     14.1     0.137945 =       3.7537eV
 LUMO-HOMO         0.573260 =      15.5992eV

 Orbitals saved in record  2100.2


 **********************************************************************************************************************************
 DATASETS  * FILE   NREC   LENGTH (MB)   RECORD NAMES
              1      19     4651.10       500      610      700      900      950      970     1000      129      960     1100   
                                          VAR    BASINP    GEOM    SYMINP    ZMAT    AOBASIS   BASIS     P2S    ABASIS      S 
                                         1400     1410     1200     1210     1080     1600     1650     1300     1700   
                                           T        V       H0       H01     AOSYM     SMH    MOLCAS    ERIS     OPER   

              2       4        1.84       700     1000      520     2100   
                                         GEOM     BASIS   MCVARS     RHF  

 PROGRAMS   *        TOTAL    HF-SCF       INT
 CPU TIMES  *       101.73     35.12     66.53
 REAL TIME  *       125.68 SEC
 DISK USED  *        18.07 GB
 **********************************************************************************************************************************


 PROGRAM * PAPT (Closed-shell)     Authors: C. Hampel, H.-J. Werner, 1991, P.J. Knowles, 2021


 CORETYPE=SMALL

 Convergence thresholds:  THRVAR = 1.00D-08  THRDEN = 1.00D-06

 Number of closed-shell orbitals:  25 (  13  12 )
 Number of external orbitals:     351 ( 175 176 )

 Molecular orbitals read from record     2100.2  Type=RHF/CANONICAL  

 Number of N-1 electron functions:              25
 Number of N-2 electron functions:             325
 Number of singly external CSFs:              4387
 Number of doubly external CSFs:          19254544
 Total number of CSFs:                    19258932

 Length of J-op  integral file:               0.00 MB
 Length of K-op  integral file:               4.92 MB

 Integral transformation finished. Total CPU:  15.91 sec, npass=  1  Memory used:  27.09 MW

 Reference energy:                   -235.43975643

                        CORR.ENERGY   TOTAL ENERGY   ENERGY CHANGE
 MP2:                   -1.17232666  -236.61208309    -1.17232666

 SCS-MP2 correlation energy:           -1.18973906   (PS=  1.200000  PT=  0.333333)
 SCS-MP2 total energy:               -236.62949549
 Iteration:   1     0.2352D+00
 Iteration:   2     0.3230D+01
 Iteration:   3     0.6348D-01
 Iteration:   4     0.1338D+00
 Iteration:   5     0.2108D-01
 Iteration:   6     0.3095D-01
 Iteration:   7     0.6857D-02
 Iteration:   8     0.6412D-02
 Iteration:   9     0.3455D-02
 Iteration:  10     0.1652D-02
 Iteration:  11     0.3115D-02
 Iteration:  12     0.5873D-03
 Iteration:  13     0.1499D-02
 Iteration:  14     0.2575D-03
 Iteration:  15     0.1560D-03
 Iteration:  16     0.3380D-03
 Iteration:  17     0.7998D-04
 PAPT operator written to  7000.1
 PAPT orbitals and eigenvalues written to  7000.2

 MP3(D):                -1.24137820  -236.68113463    -0.06905154



 RESULTS
 =======

  Reference energy                   -235.439756428553

  Correlated core orbitals:             1.1       2.1       3.1       1.2       2.2       3.2
  Orbital energies:                   -11.2171  -11.2050  -11.2035  -11.2165  -11.2050  -11.2035

  MP3 core-core energy                 -0.065020783357
  MP3 core-valence energy              -0.037327144961
  MP3 valence correlation energy       -1.139030270911

  MP3 singlet pair energy              -0.877699648864
  MP3 triplet pair energy              -0.363678550365
  MP3 correlation energy               -1.241378199229

 !MP3 total energy                   -236.681134627782

 Timing summary (sec):

 STEP                 CPU(USER)    SYS     CPU(TOT)    WALL
 Transformation         16.29      1.41     17.70     17.49
 CCSD iterations       179.53      1.35    180.88     76.25

 Program statistics:

 Available memory in ccsd:              3145725487
 Min. memory needed in ccsd:              44171428
 Max. memory used in ccsd:                62428784
 Max. memory used in cckext:              53236907 ( 1 integral passes)



 **********************************************************************************************************************************
 DATASETS  * FILE   NREC   LENGTH (MB)   RECORD NAMES
              1      21     4915.62       500      610      700      900      950      970     1000      129      960     1100   
                                          VAR    BASINP    GEOM    SYMINP    ZMAT    AOBASIS   BASIS     P2S    ABASIS      S 
                                         1400     1410     1200     1210     1080     1600     1650     1300     1700     1380   
                                           T        V       H0       H01     AOSYM     SMH    MOLCAS    ERIS     OPER     JKOP   
                                         7000   
                                        PAPT AO    

              2       5        3.56       700     1000      520     2100     7000   
                                         GEOM     BASIS   MCVARS     RHF     PAPT   

 PROGRAMS   *        TOTAL      PAPT    HF-SCF       INT
 CPU TIMES  *       195.75     94.02     35.12     66.53
 REAL TIME  *       219.46 SEC
 DISK USED  *        18.07 GB
 **********************************************************************************************************************************


 PROGRAM * MP2 (Closed-shell)     Authors: C. Hampel, H.-J. Werner, 1991, M. Deegan, P.J. Knowles, 1992


 CORETYPE=SMALL

 Convergence thresholds:  THRVAR = 1.00D-08  THRDEN = 1.00D-06

 Number of closed-shell orbitals:  25 (  13  12 )
 Number of external orbitals:     351 ( 175 176 )

 Molecular orbitals read from record     7000.2  Type=PAPT/CANONICAL (state 1.1)

 Number of N-1 electron functions:              25
 Number of N-2 electron functions:             325
 Number of singly external CSFs:              4387
 Number of doubly external CSFs:          19254544
 Total number of CSFs:                    19258932

 Length of J-op  integral file:               0.00 MB
 Length of K-op  integral file:               4.92 MB

 Integral transformation finished. Total CPU:  13.59 sec, npass=  1  Memory used:  27.09 MW
 Orbital energies read from record       7000.2  Type=PAPT/CANONICAL (state 1.1)

 Memory needed for MP2:                      0.35 MW

 SCS-MP2 correlation energy:           -1.278923654496   (PS=  1.200000  PT=  0.333333)
 SCS-MP2 total energy:               -236.718680083049


  Reference energy                   -235.439756428553

  Correlated core orbitals:             1.1       2.1       3.1       1.2       2.2       3.2
  Orbital energies:                   -10.6543  -10.6408  -10.6392  -10.6583  -10.6398  -10.6412

  MP2 core-core energy                 -0.065539522547
  MP2 core-valence energy              -0.036970996972
  MP2 valence correlation energy       -1.152137630808

  MP2 singlet pair energy              -0.862362163197
  MP2 triplet pair energy              -0.392285987130
  MP2 correlation energy               -1.254648150328

 !MP2 total energy                   -236.694404578881


 **********************************************************************************************************************************
 DATASETS  * FILE   NREC   LENGTH (MB)   RECORD NAMES
              1      21     4915.62       500      610      700      900      950      970     1000      129      960     1100   
                                          VAR    BASINP    GEOM    SYMINP    ZMAT    AOBASIS   BASIS     P2S    ABASIS      S 
                                         1400     1410     1200     1210     1080     1600     1650     1300     1700     1380   
                                           T        V       H0       H01     AOSYM     SMH    MOLCAS    ERIS     OPER     JKOP   
                                         7000   
                                        PAPT AO    

              2       5        3.56       700     1000      520     2100     7000   
                                         GEOM     BASIS   MCVARS     RHF     PAPT   

 PROGRAMS   *        TOTAL       MP2      PAPT    HF-SCF       INT
 CPU TIMES  *       213.56     17.81     94.02     35.12     66.53
 REAL TIME  *       238.57 SEC
 DISK USED  *        18.07 GB
 **********************************************************************************************************************************

 Dump information in style XML to xml output                                                                      

 Orbitals will not be exported.

 **********************************************************************************************************************************

 MP2/cc-pVTZ energy=   -236.694404578881

             MP2            PAPT          HF-SCF
   -236.69440458   -236.68113463   -235.43975643
 **********************************************************************************************************************************
 Molpro calculation terminated
