
 Working directory              : /var/folders/2v/xbgp75_9785319ghcgb4zr4r0000gr/T//molpro.7BC3EJEeZT/
 Global scratch directory       : /var/folders/2v/xbgp75_9785319ghcgb4zr4r0000gr/T//molpro.7BC3EJEeZT/
 Wavefunction directory         : /Users/peterk/wfu/
 Main file repository           : /var/folders/2v/xbgp75_9785319ghcgb4zr4r0000gr/T//molpro.7BC3EJEeZT/

 id        : peterk

 Nodes        nprocs
 pjk2022.local    1
 GA implementation: MPI file
 GA implementation (serial work in mppx): MPI file

 Using customized tuning parameters: mindgm=1; mindgv=20; mindgc=4; mindgr=1; noblas=0; minvec=7
 default implementation of scratch files=df  


 Variables initialized (1037), CPU time= 0.01 sec
 
 
 
 geometry={
 9
    C   -0.00528851985472      0.20512421101379      0.00275921077523
    C   -0.00526015092496     -0.01129198580653      1.49376148811973
    O   1.00772508331426      0.41655042738661     -0.62218748794772
    N   -1.21642245805803      0.08470359878794     -0.60346144181279
    H   -2.06679695180295      0.07427963622758     -0.07915043370071
    H   -1.26211803817631      0.28560014303201     -1.58484238463433
    H   -0.96834681496787      0.19978673703828      1.95046221232140
    H   0.25826546051324     -1.04755216675945      1.69464698528594
    H   0.75400738995733      0.61582839907976      1.94252685159325
 }
 basis=cc-pVDZ
 core,small
 
 
 hf; papt;mp2
 
 
 
 {put,xml;noorbitals,nobasis}
 Commands initialized (841), CPU time= 0.00 sec, 716 directives.
 Default parameters read. Elapsed time= 0.05 sec

 Checking input...
 Passed
1


                                         ***  PROGRAM SYSTEM MOLPRO  ***
                                       Copyright, TTI GmbH Stuttgart, 2015
                                    Version 2023.1 linked Sat Jul 22 07:59:25 2023


 **********************************************************************************************************************************
 LABEL *                                                                                                                                                                 
  64 bit serial version                                                                  DATE: 01-Aug-23          TIME: 21:49:02  
 **********************************************************************************************************************************

 SHA1:             401d111a1dbfa49388eacdf0424f85138b2d30d0
 **********************************************************************************************************************************

 Memory per process:      3146 MW
 Total memory per node:   4194 MW
 Total GA space:          1049 MW

 GA preallocation disabled
 GA check enabled

 Geometry recognized as XYZ


 Variable memory set to 3145.7 MW

 SETTING BASIS          =    CC-PVDZ


 Recomputing integrals since basis changed


 Using spherical harmonics

 Library entry C      S cc-pVDZ              selected for orbital group  1
 Library entry C      P cc-pVDZ              selected for orbital group  1
 Library entry C      D cc-pVDZ              selected for orbital group  1
 Library entry O      S cc-pVDZ              selected for orbital group  2
 Library entry O      P cc-pVDZ              selected for orbital group  2
 Library entry O      D cc-pVDZ              selected for orbital group  2
 Library entry N      S cc-pVDZ              selected for orbital group  3
 Library entry N      P cc-pVDZ              selected for orbital group  3
 Library entry N      D cc-pVDZ              selected for orbital group  3
 Library entry H      S cc-pVDZ              selected for orbital group  4
 Library entry H      P cc-pVDZ              selected for orbital group  4


 PROGRAM * SEWARD (Integral evaluation for generally contracted gaussian basis sets)     Author: Roland Lindh, 1990

 Geometry written to block  1 of record 700


 Point group  C1  



 ATOMIC COORDINATES

 NR  ATOM    CHARGE       X              Y              Z

   1  C       6.00   -0.009993854    0.387628580    0.005214153
   2  C       6.00   -0.009940245   -0.021338761    2.822800108
   3  O       8.00    1.904324416    0.787166225   -1.175763950
   4  N       7.00   -2.298705298    0.160066603   -1.140376852
   5  H       1.00   -3.905680194    0.140368169   -0.149572642
   6  H       1.00   -2.385057429    0.539706051   -2.994918058
   7  H       1.00   -1.829910274    0.377542216    3.685839398
   8  H       1.00    0.488050988   -1.979586696    3.202418680
   9  H       1.00    1.424867463    1.163747014    3.670843739

 Bond lengths in Bohr (Angstrom)

 1-2  2.847111678  1-3  2.284503020  1-4  2.569506426  2-7  2.053346965  2-8  2.055928137
     ( 1.506626617)     ( 1.208906937)     ( 1.359724244)     ( 1.086584420)     ( 1.087950318)

 2-9  2.045062212  4-5  1.887974928  4-6  1.894968571
     ( 1.082200318)     ( 0.999073307)     ( 1.002774183)

 Bond angles

  1-2-7  112.83192448   1-2-8  108.63593940   1-2-9  109.09602661   1-4-5  121.67472559

  1-4-6  117.33394766   2-1-3  122.45906074   2-1-4  115.37321062   3-1-4  122.09988640

  5-4-6  118.48344158   7-2-8  108.79076281   7-2-9  109.57202264   8-2-9  107.78484100

 NUCLEAR CHARGE:                   32
 NUMBER OF PRIMITIVE AOS:         143
 NUMBER OF SYMMETRY AOS:          139
 NUMBER OF CONTRACTIONS:           81   (   81A   )
 NUMBER OF INNER CORE ORBITALS:     0   (    0A   )
 NUMBER OF OUTER CORE ORBITALS:     4   (    4A   )
 NUMBER OF VALENCE ORBITALS:       21   (   21A   )


 NUCLEAR REPULSION ENERGY  122.40200774

 Eigenvalues of metric

         1 0.355E-02 0.487E-02 0.935E-02 0.166E-01 0.250E-01 0.298E-01 0.355E-01 0.362E-01


 Contracted 2-electron integrals neglected if value below      1.0D-11
 AO integral compression algorithm  1   Integral accuracy      1.0D-11

     26.477 MB (compressed) written to integral file ( 53.2%)


 NUMBER OF SORTED TWO-ELECTRON INTEGRALS:    5516181.     BUFFER LENGTH:  32768
 NUMBER OF SEGMENTS:   1  SEGMENT LENGTH:    5516181      RECORD LENGTH: 524288

 Memory used in sort:       6.07 MW

 SORT1 READ     6264558. AND WROTE     5466505. INTEGRALS IN     16 RECORDS. CPU TIME:     0.03 SEC, REAL TIME:     0.05 SEC
 SORT2 READ     5466505. AND WROTE     5516181. INTEGRALS IN    101 RECORDS. CPU TIME:     0.07 SEC, REAL TIME:     0.08 SEC

 FILE SIZES:   FILE 1:    56.9 MBYTE,  FILE 4:    67.2 MBYTE,   TOTAL:    124.0 MBYTE

 OPERATOR DM      FOR CENTER  0  COORDINATES:    0.000000    0.000000    0.000000


 **********************************************************************************************************************************
 DATASETS  * FILE   NREC   LENGTH (MB)   RECORD NAMES
              1      19       51.10       500      610      700      900      950      970     1000      129      960     1100   
                                          VAR    BASINP    GEOM    SYMINP    ZMAT    AOBASIS   BASIS     P2S    ABASIS      S 
                                         1400     1410     1200     1210     1080     1600     1650     1300     1700   
                                           T        V       H0       H01     AOSYM     SMH    MOLCAS    ERIS     OPER   

 PROGRAMS   *        TOTAL       INT
 CPU TIMES  *         0.61      0.52
 REAL TIME  *         1.11 SEC
 DISK USED  *       118.75 MB
 **********************************************************************************************************************************


 Program * Restricted Hartree-Fock

 Orbital guess generated from atomic densities. Full valence occupancy:   25

 Initial occupancy:  16

 NELEC=   32   SYM=1   MS2= 0   THRE=1.0D-08   THRD=3.2D-06   THRG=3.2D-06  HFMA2=F  DIIS_START=2   DIIS_MAX=10   DIIS_INCORE=F

 Level shifts:    0.00 (CLOSED)    0.00 (OPEN)    0.30 (GAP_MIN)

 ITER           ETOT              DE          GRAD        DDIFF     DIIS  NEXP   TIME(IT)  TIME(TOT)  DIAG
   1     -207.89670571    -207.89670571     0.00D+00     0.13D+00     0     0       0.02      0.04    start
   2     -207.96008493      -0.06337922     0.97D-02     0.22D-01     1     0       0.02      0.06    diag
   3     -207.99434483      -0.03425990     0.67D-02     0.84D-02     2     0       0.03      0.09    diag
   4     -207.99613937      -0.00179454     0.10D-02     0.22D-02     3     0       0.02      0.11    diag
   5     -207.99636007      -0.00022070     0.33D-03     0.72D-03     4     0       0.02      0.13    diag
   6     -207.99639188      -0.00003181     0.99D-04     0.29D-03     5     0       0.02      0.15    diag
   7     -207.99639685      -0.00000497     0.45D-04     0.12D-03     6     0       0.03      0.18    diag
   8     -207.99639751      -0.00000066     0.17D-04     0.45D-04     7     0       0.02      0.20    fixocc
   9     -207.99639759      -0.00000008     0.53D-05     0.18D-04     8     0       0.02      0.22    diag
  10     -207.99639760      -0.00000000     0.12D-05     0.40D-05     9     0       0.03      0.25    diag/orth
  11     -207.99639760      -0.00000000     0.22D-06     0.65D-06     9     0       0.02      0.27    diag
  12     -207.99639760      -0.00000000     0.65D-07     0.14D-06     0     0       0.02      0.29    diag

 Final occupancy:  16

 !RHF STATE 1.1 Energy               -207.996397596893
  RHF One-electron energy            -525.715062644149
  RHF Two-electron energy             195.316657302823
  RHF Kinetic energy                  207.861536269824
  RHF Nuclear energy                  122.402007744434
  RHF Virial quotient                  -1.000648803668

 !RHF STATE 1.1 Dipole moment          -1.44969417    -0.13917845     0.60750223
 Dipole moment /Debye                  -3.68475504    -0.35375634     1.54411664

 Orbital energies:

           1.1          2.1          3.1          4.1          5.1          6.1          7.1          8.1          9.1         10.1
    -20.510499   -15.581152   -11.349419   -11.239047    -1.379823    -1.208102    -1.003992    -0.793484    -0.720518    -0.659520

          11.1         12.1         13.1         14.1         15.1         16.1         17.1         18.1
     -0.612700    -0.580877    -0.558802    -0.520695    -0.415766    -0.406487     0.168351     0.197707


 HOMO     16.1    -0.406487 =     -11.0611eV
 LUMO     17.1     0.168351 =       4.5811eV
 LUMO-HOMO         0.574838 =      15.6421eV

 Orbitals saved in record  2100.2


 **********************************************************************************************************************************
 DATASETS  * FILE   NREC   LENGTH (MB)   RECORD NAMES
              1      19       51.10       500      610      700      900      950      970     1000      129      960     1100   
                                          VAR    BASINP    GEOM    SYMINP    ZMAT    AOBASIS   BASIS     P2S    ABASIS      S 
                                         1400     1410     1200     1210     1080     1600     1650     1300     1700   
                                           T        V       H0       H01     AOSYM     SMH    MOLCAS    ERIS     OPER   

              2       4        0.62       700     1000      520     2100   
                                         GEOM     BASIS   MCVARS     RHF  

 PROGRAMS   *        TOTAL    HF-SCF       INT
 CPU TIMES  *         0.90      0.29      0.52
 REAL TIME  *         1.43 SEC
 DISK USED  *       118.75 MB
 **********************************************************************************************************************************


 PROGRAM * PAPT (Closed-shell)     Authors: C. Hampel, H.-J. Werner, 1991, P.J. Knowles, 2021


 CORETYPE=SMALL

 Convergence thresholds:  THRVAR = 1.00D-08  THRDEN = 1.00D-06

 Number of closed-shell orbitals:  16 (  16 )
 Number of external orbitals:      65 (  65 )

 Molecular orbitals read from record     2100.2  Type=RHF/CANONICAL  

 Number of N-1 electron functions:              16
 Number of N-2 electron functions:             136
 Number of singly external CSFs:              1040
 Number of doubly external CSFs:            541320
 Total number of CSFs:                      542361

 Length of J-op  integral file:               0.00 MB
 Length of K-op  integral file:               0.51 MB

 Integral transformation finished. Total CPU:   0.07 sec, npass=  1  Memory used:   1.63 MW

 Reference energy:                   -207.99639760

                        CORR.ENERGY   TOTAL ENERGY   ENERGY CHANGE
 MP2:                   -0.63163214  -208.62802974    -0.63163214

 SCS-MP2 correlation energy:           -0.61771792   (PS=  1.200000  PT=  0.333333)
 SCS-MP2 total energy:               -208.61411551
 Iteration:   1     0.2428D+00
 Iteration:   2     0.1176D+02
 Iteration:   3     0.9692D-01
 Iteration:   4     0.1604D+00
 Iteration:   5     0.6221D-01
 Iteration:   6     0.3870D-01
 Iteration:   7     0.8513D-01
 Iteration:   8     0.2036D-01
 Iteration:   9     0.5792D+00
 Iteration:  10     0.9034D-02
 Iteration:  11     0.2182D-01
 Iteration:  12     0.6301D-02
 Iteration:  13     0.3720D-02
 Iteration:  14     0.4272D-02
 Iteration:  15     0.1224D-02
 Iteration:  16     0.2340D-01
 Iteration:  17     0.6105D-03
 Iteration:  18     0.1065D-02
 Iteration:  19     0.3056D-03
 Iteration:  20     0.3055D-03
 Iteration:  21     0.1140D-03
 Iteration:  22     0.1694D-03
 Iteration:  23     0.6037D-04
 PAPT operator written to  7000.1
 PAPT orbitals and eigenvalues written to  7000.2

 MP3(D):                -0.65318823  -208.64958582    -0.02155609



 RESULTS
 =======

  Reference energy                   -207.996397596892

  Correlated core orbitals:             1.1       2.1       3.1       4.1
  Orbital energies:                   -20.5105  -15.5812  -11.3494  -11.2390

  MP3 core-core energy                 -0.002360647431
  MP3 core-valence energy              -0.007613111665
  MP3 valence correlation energy       -0.643214468427

  MP3 singlet pair energy              -0.428863005383
  MP3 triplet pair energy              -0.224325222140
  MP3 correlation energy               -0.653188227523

 !MP3 total energy                   -208.649585824416

 Timing summary (sec):

 STEP                 CPU(USER)    SYS     CPU(TOT)    WALL
 Transformation          0.08      0.01      0.09      0.09
 CCSD iterations         3.34      0.04      3.38      2.38

 Program statistics:

 Available memory in ccsd:              3145726960
 Min. memory needed in ccsd:               1506696
 Max. memory used in ccsd:                 1977360
 Max. memory used in cckext:               1908392 ( 1 integral passes)



 **********************************************************************************************************************************
 DATASETS  * FILE   NREC   LENGTH (MB)   RECORD NAMES
              1      21       61.49       500      610      700      900      950      970     1000      129      960     1100   
                                          VAR    BASINP    GEOM    SYMINP    ZMAT    AOBASIS   BASIS     P2S    ABASIS      S 
                                         1400     1410     1200     1210     1080     1600     1650     1300     1700     1380   
                                           T        V       H0       H01     AOSYM     SMH    MOLCAS    ERIS     OPER     JKOP   
                                         7000   
                                        PAPT AO    

              2       5        0.87       700     1000      520     2100     7000   
                                         GEOM     BASIS   MCVARS     RHF     PAPT   

 PROGRAMS   *        TOTAL      PAPT    HF-SCF       INT
 CPU TIMES  *         3.34      2.44      0.29      0.52
 REAL TIME  *         3.96 SEC
 DISK USED  *       118.75 MB
 **********************************************************************************************************************************


 PROGRAM * MP2 (Closed-shell)     Authors: C. Hampel, H.-J. Werner, 1991, M. Deegan, P.J. Knowles, 1992


 CORETYPE=SMALL

 Convergence thresholds:  THRVAR = 1.00D-08  THRDEN = 1.00D-06

 Number of closed-shell orbitals:  16 (  16 )
 Number of external orbitals:      65 (  65 )

 Molecular orbitals read from record     7000.2  Type=PAPT/CANONICAL (state 1.1)

 Number of N-1 electron functions:              16
 Number of N-2 electron functions:             136
 Number of singly external CSFs:              1040
 Number of doubly external CSFs:            541320
 Total number of CSFs:                      542361

 Length of J-op  integral file:               0.00 MB
 Length of K-op  integral file:               0.51 MB

 Integral transformation finished. Total CPU:   0.07 sec, npass=  1  Memory used:   1.63 MW
 Orbital energies read from record       7000.2  Type=PAPT/CANONICAL (state 1.1)

 Memory needed for MP2:                      0.03 MW

 SCS-MP2 correlation energy:           -0.648350045654   (PS=  1.200000  PT=  0.333333)
 SCS-MP2 total energy:               -208.644747642547


  Reference energy                   -207.996397596892

  Correlated core orbitals:             1.1       2.1       3.1       4.1
  Orbital energies:                   -21.4890  -16.0014  -11.4677  -11.3199

  MP2 core-core energy                 -0.002383233273
  MP2 core-valence energy              -0.007497083270
  MP2 valence correlation energy       -0.649471367985

  MP2 singlet pair energy              -0.412073264909
  MP2 triplet pair energy              -0.247278419619
  MP2 correlation energy               -0.659351684529

 !MP2 total energy                   -208.655749281421


 **********************************************************************************************************************************
 DATASETS  * FILE   NREC   LENGTH (MB)   RECORD NAMES
              1      21       61.49       500      610      700      900      950      970     1000      129      960     1100   
                                          VAR    BASINP    GEOM    SYMINP    ZMAT    AOBASIS   BASIS     P2S    ABASIS      S 
                                         1400     1410     1200     1210     1080     1600     1650     1300     1700     1380   
                                           T        V       H0       H01     AOSYM     SMH    MOLCAS    ERIS     OPER     JKOP   
                                         7000   
                                        PAPT AO    

              2       5        0.87       700     1000      520     2100     7000   
                                         GEOM     BASIS   MCVARS     RHF     PAPT   

 PROGRAMS   *        TOTAL       MP2      PAPT    HF-SCF       INT
 CPU TIMES  *         3.49      0.15      2.44      0.29      0.52
 REAL TIME  *         4.31 SEC
 DISK USED  *       118.75 MB
 **********************************************************************************************************************************

 Dump information in style XML to xml output                                                                      

 Orbitals will not be exported.

 **********************************************************************************************************************************

 MP2/cc-pVDZ energy=   -208.655749281421

             MP2            PAPT          HF-SCF
   -208.65574928   -208.64958582   -207.99639760
 **********************************************************************************************************************************
 Molpro calculation terminated
