
 Working directory              : /var/folders/2v/xbgp75_9785319ghcgb4zr4r0000gr/T//molpro.PemikpQDqP/
 Global scratch directory       : /var/folders/2v/xbgp75_9785319ghcgb4zr4r0000gr/T//molpro.PemikpQDqP/
 Wavefunction directory         : /Users/peterk/wfu/
 Main file repository           : /var/folders/2v/xbgp75_9785319ghcgb4zr4r0000gr/T//molpro.PemikpQDqP/

 id        : peterk

 Nodes        nprocs
 pjk2022.local    1
 GA implementation: MPI file
 GA implementation (serial work in mppx): MPI file

 Using customized tuning parameters: mindgm=1; mindgv=20; mindgc=4; mindgr=1; noblas=0; minvec=7
 default implementation of scratch files=df  


 Variables initialized (1037), CPU time= 0.01 sec
 
 
 
 geometry={
 6
  N     0.0507550    0.7066917   -0.2218809
  N    -0.0507550   -0.7066917   -0.2218809
  H     0.8523830   -1.0838766   -0.4577758
  H    -0.3235893   -1.0740537    0.6796527
  H    -0.8523830    1.0838766   -0.4577758
  H     0.3235893    1.0740537    0.6796527
 }
 basis=cc-pVDZ
 core,small
 
 
 hf; ccsd
 
 
 
 {put,xml;noorbitals,nobasis}
 Commands initialized (841), CPU time= 0.00 sec, 716 directives.
 Default parameters read. Elapsed time= 0.07 sec

 Checking input...
 Passed
1


                                         ***  PROGRAM SYSTEM MOLPRO  ***
                                       Copyright, TTI GmbH Stuttgart, 2015
                                    Version 2023.1 linked Sat Jul 22 07:59:25 2023


 **********************************************************************************************************************************
 LABEL *                                                                                                                                                                 
  64 bit serial version                                                                  DATE: 02-Aug-23          TIME: 09:07:27  
 **********************************************************************************************************************************

 SHA1:             401d111a1dbfa49388eacdf0424f85138b2d30d0
 **********************************************************************************************************************************

 Memory per process:      3146 MW
 Total memory per node:   4194 MW
 Total GA space:          1049 MW

 GA preallocation disabled
 GA check enabled

 Geometry recognized as XYZ


 Variable memory set to 3145.7 MW

 SETTING BASIS          =    CC-PVDZ


 Recomputing integrals since basis changed


 Using spherical harmonics

 Library entry N      S cc-pVDZ              selected for orbital group  1
 Library entry N      P cc-pVDZ              selected for orbital group  1
 Library entry N      D cc-pVDZ              selected for orbital group  1
 Library entry H      S cc-pVDZ              selected for orbital group  2
 Library entry H      P cc-pVDZ              selected for orbital group  2


 PROGRAM * SEWARD (Integral evaluation for generally contracted gaussian basis sets)     Author: Roland Lindh, 1990

 Geometry written to block  1 of record 700


 Point group  C2  



 ATOMIC COORDINATES

 NR  ATOM    CHARGE       X              Y              Z

   1  N       7.00    0.095913049    1.335453768   -0.419294133
   2  N       7.00   -0.095913049   -1.335453768   -0.419294133
   3  H       1.00    1.610770423   -2.048229927   -0.865070888
   4  H       1.00   -1.610770423    2.048229927   -0.865070888
   5  H       1.00   -0.611495154   -2.029667336    1.284357463
   6  H       1.00    0.611495154    2.029667336    1.284357463

 Bond lengths in Bohr (Angstrom)

 1-2  2.677787205  1-4  1.902507620  1-6  1.910546034  2-3  1.902507620  2-5  1.910546034
     ( 1.417023964)     ( 1.006763676)     ( 1.011017421)     ( 1.006763676)     ( 1.011017421)

 Bond angles

  1-2-3  108.02462730   1-2-5  112.44255668   2-1-4  108.02462730   2-1-6  112.44255668

  3-2-5  108.35406944   4-1-6  108.35406944

 NUCLEAR CHARGE:                   18
 NUMBER OF PRIMITIVE AOS:          82
 NUMBER OF SYMMETRY AOS:           80
 NUMBER OF CONTRACTIONS:           48   (   24A   +   24B   )
 NUMBER OF INNER CORE ORBITALS:     0   (    0A   +    0B   )
 NUMBER OF OUTER CORE ORBITALS:     2   (    1A   +    1B   )
 NUMBER OF VALENCE ORBITALS:       12   (    6A   +    6B   )


 NUCLEAR REPULSION ENERGY   41.88127993

 Eigenvalues of metric

         1 0.197E-01 0.363E-01 0.427E-01 0.783E-01 0.119E+00 0.128E+00 0.166E+00 0.192E+00
         2 0.683E-02 0.330E-01 0.408E-01 0.522E-01 0.715E-01 0.124E+00 0.146E+00 0.169E+00


 Contracted 2-electron integrals neglected if value below      1.0D-11
 AO integral compression algorithm  1   Integral accuracy      1.0D-11

     2.359 MB (compressed) written to integral file ( 60.0%)


 NUMBER OF SORTED TWO-ELECTRON INTEGRALS:     360300.     BUFFER LENGTH:  32768
 NUMBER OF SEGMENTS:   1  SEGMENT LENGTH:     360300      RECORD LENGTH: 524288

 Memory used in sort:       0.92 MW

 SORT1 READ      528056. AND WROTE      338796. INTEGRALS IN      1 RECORDS. CPU TIME:     0.00 SEC, REAL TIME:     0.00 SEC
 SORT2 READ      338796. AND WROTE      360300. INTEGRALS IN      9 RECORDS. CPU TIME:     0.02 SEC, REAL TIME:     0.02 SEC

 FILE SIZES:   FILE 1:    32.5 MBYTE,  FILE 4:     4.3 MBYTE,   TOTAL:     36.7 MBYTE

 OPERATOR DM      FOR CENTER  0  COORDINATES:    0.000000    0.000000    0.000000


 **********************************************************************************************************************************
 DATASETS  * FILE   NREC   LENGTH (MB)   RECORD NAMES
              1      19       30.32       500      610      700      900      950      970     1000      129      960     1100   
                                          VAR    BASINP    GEOM    SYMINP    ZMAT    AOBASIS   BASIS     P2S    ABASIS      S 
                                         1400     1410     1200     1210     1080     1600     1650     1300     1700   
                                           T        V       H0       H01     AOSYM     SMH    MOLCAS    ERIS     OPER   

 PROGRAMS   *        TOTAL       INT
 CPU TIMES  *         0.35      0.26
 REAL TIME  *         1.64 SEC
 DISK USED  *        35.45 MB
 **********************************************************************************************************************************


 Program * Restricted Hartree-Fock

 Orbital guess generated from atomic densities. Full valence occupancy:    7   7

 Initial occupancy:   5   4

 NELEC=   18   SYM=1   MS2= 0   THRE=1.0D-08   THRD=3.2D-06   THRG=3.2D-06  HFMA2=F  DIIS_START=2   DIIS_MAX=10   DIIS_INCORE=F

 Level shifts:    0.00 (CLOSED)    0.00 (OPEN)    0.30 (GAP_MIN)

 ITER           ETOT              DE          GRAD        DDIFF     DIIS  NEXP   TIME(IT)  TIME(TOT)  DIAG
   1     -111.16016830    -111.16016830     0.00D+00     0.22D+00     0     0       0.00      0.00    start
   2     -111.18452707      -0.02435877     0.12D-01     0.24D-01     1     0       0.01      0.01    diag
   3     -111.18639183      -0.00186475     0.34D-02     0.60D-02     2     0       0.00      0.01    diag
   4     -111.18664417      -0.00025234     0.11D-02     0.22D-02     3     0       0.00      0.01    diag
   5     -111.18665997      -0.00001580     0.25D-03     0.47D-03     4     0       0.00      0.01    diag
   6     -111.18666101      -0.00000104     0.45D-04     0.10D-03     5     0       0.00      0.01    diag
   7     -111.18666111      -0.00000010     0.12D-04     0.37D-04     6     0       0.00      0.01    diag
   8     -111.18666112      -0.00000001     0.33D-05     0.12D-04     7     0       0.00      0.01    fixocc
   9     -111.18666112      -0.00000000     0.54D-06     0.19D-05     8     0       0.01      0.02    diag
  10     -111.18666112      -0.00000000     0.94D-07     0.20D-06     0     0       0.00      0.02    diag/orth

 Final occupancy:   5   4

 !RHF STATE 1.1 Energy               -111.186661121113
  RHF One-electron energy            -233.918358703731
  RHF Two-electron energy              80.850417650201
  RHF Kinetic energy                  111.093977793698
  RHF Nuclear energy                   41.881279932417
  RHF Virial quotient                  -1.000834278592

 !RHF STATE 1.1 Dipole moment           0.00000000     0.00000000     0.79816174
 Dipole moment /Debye                   0.00000000     0.00000000     2.02872478

 Orbital energies:

           1.1          2.1          3.1          4.1          5.1          6.1          7.1
    -15.560693    -1.251132    -0.669804    -0.601923    -0.399572     0.187276     0.263283

           1.2          2.2          3.2          4.2          5.2          6.2
    -15.560220    -1.001064    -0.661529    -0.402825     0.218609     0.271663


 HOMO      5.1    -0.399572 =     -10.8729eV
 LUMO      6.1     0.187276 =       5.0960eV
 LUMO-HOMO         0.586847 =      15.9689eV

 Orbitals saved in record  2100.2


 **********************************************************************************************************************************
 DATASETS  * FILE   NREC   LENGTH (MB)   RECORD NAMES
              1      19       30.32       500      610      700      900      950      970     1000      129      960     1100   
                                          VAR    BASINP    GEOM    SYMINP    ZMAT    AOBASIS   BASIS     P2S    ABASIS      S 
                                         1400     1410     1200     1210     1080     1600     1650     1300     1700   
                                           T        V       H0       H01     AOSYM     SMH    MOLCAS    ERIS     OPER   

              2       4        0.48       700     1000      520     2100   
                                         GEOM     BASIS   MCVARS     RHF  

 PROGRAMS   *        TOTAL    HF-SCF       INT
 CPU TIMES  *         0.37      0.02      0.26
 REAL TIME  *         1.66 SEC
 DISK USED  *        35.45 MB
 **********************************************************************************************************************************


 PROGRAM * CCSD (Closed-shell coupled cluster)     Authors: C. Hampel, H.-J. Werner, 1991, M. Deegan, P.J. Knowles, 1992


 CORETYPE=SMALL

 Convergence thresholds:  THRVAR = 1.00D-08  THRDEN = 1.00D-06

 Number of closed-shell orbitals:   9 (   5   4 )
 Number of external orbitals:      39 (  19  20 )

 Molecular orbitals read from record     2100.2  Type=RHF/CANONICAL  

 Number of N-1 electron functions:               9
 Number of N-2 electron functions:              45
 Number of singly external CSFs:               175
 Number of doubly external CSFs:             30976
 Total number of CSFs:                       31152

 Length of J-op  integral file:               0.00 MB
 Length of K-op  integral file:               0.14 MB
 Length of 3-ext integral record:             0.00 MB

 Integral transformation finished. Total CPU:   0.00 sec, npass=  1  Memory used:   0.33 MW

 Reference energy:                   -111.18666112

 MP2 singlet pair energy:              -0.22539534
 MP2 triplet pair energy:              -0.12859485
 MP2 correlation energy:               -0.35399019
 MP2 total energy:                   -111.54065131

 SCS-MP2 correlation energy:           -0.35048898   (PS=  1.200000  PT=  0.333333)
 SCS-MP2 total energy:               -111.53715010

 ITER.      SQ.NORM     CORR.ENERGY   TOTAL ENERGY   ENERGY CHANGE        DEN1      VAR(S)    VAR(P)  DIIS     TIME  TIME/IT
   1      1.11278213    -0.37619305  -111.56285417    -0.02220286    -0.01408826  0.57D-03  0.17D-02  1  1     0.53     0.02
   2      1.12078107    -0.37828129  -111.56494241    -0.00208824    -0.00884724  0.19D-04  0.13D-03  2  2     0.56     0.02
   3      1.12259674    -0.37839253  -111.56505365    -0.00011124    -0.00124967  0.31D-05  0.71D-05  3  3     0.58     0.02
   4      1.12302982    -0.37841531  -111.56507643    -0.00002278    -0.00021337  0.31D-06  0.43D-06  4  4     0.60     0.02
   5      1.12309079    -0.37841552  -111.56507664    -0.00000021    -0.00002206  0.96D-07  0.41D-07  5  5     0.62     0.02
   6      1.12310437    -0.37841474  -111.56507586     0.00000078    -0.00000379  0.25D-07  0.48D-08  6  6     0.64     0.02
   7      1.12310990    -0.37841475  -111.56507587    -0.00000001    -0.00000052  0.38D-08  0.10D-08  6  1     0.66     0.02

 Norm of t1 vector:      0.03328581      S-energy:    -0.00000016      T1 diagnostic:  0.00554764
                                                                       D1 diagnostic:  0.01133389
                                                                       D2 diagnostic:  0.13860882 (internal)


 RESULTS
 =======

  Reference energy                   -111.186661121113

  Correlated core orbitals:             1.1       1.2
  Orbital energies:                   -15.5607  -15.5602

  CCSD core-core energy                -0.001088567796
  CCSD core-valence energy             -0.003807651049
  CCSD valence correlation energy      -0.373518527976

  CCSD singlet pair energy             -0.261991166386
  CCSD triplet pair energy             -0.116423420865
  CCSD correlation energy              -0.378414746821

 !CCSD total energy                  -111.565075867934

 Timing summary (sec):

 STEP                 CPU(USER)    SYS     CPU(TOT)    WALL
 CCSD iterations         0.67      0.02      0.69      0.19

 Program statistics:

 Available memory in ccsd:              3145727671
 Min. memory needed in ccsd:                102480
 Max. memory used in ccsd:                  126512
 Max. memory used in cckext:                158393 ( 7 integral passes)



 **********************************************************************************************************************************
 DATASETS  * FILE   NREC   LENGTH (MB)   RECORD NAMES
              1      20       31.98       500      610      700      900      950      970     1000      129      960     1100   
                                          VAR    BASINP    GEOM    SYMINP    ZMAT    AOBASIS   BASIS     P2S    ABASIS      S 
                                         1400     1410     1200     1210     1080     1600     1650     1300     1700     1380   
                                           T        V       H0       H01     AOSYM     SMH    MOLCAS    ERIS     OPER     JKOP   

              2       4        0.48       700     1000      520     2100   
                                         GEOM     BASIS   MCVARS     RHF  

 PROGRAMS   *        TOTAL      CCSD    HF-SCF       INT
 CPU TIMES  *         0.56      0.19      0.02      0.26
 REAL TIME  *         1.89 SEC
 DISK USED  *        38.20 MB
 **********************************************************************************************************************************

 Dump information in style XML to xml output                                                                      

 Orbitals will not be exported.

 **********************************************************************************************************************************

 CCSD/cc-pVDZ energy=   -111.565075867934

            CCSD          HF-SCF
   -111.56507587   -111.18666112
 **********************************************************************************************************************************
 Molpro calculation terminated
