
 Working directory              : /var/folders/2v/xbgp75_9785319ghcgb4zr4r0000gr/T//molpro.005QGFZpnZ/
 Global scratch directory       : /var/folders/2v/xbgp75_9785319ghcgb4zr4r0000gr/T//molpro.005QGFZpnZ/
 Wavefunction directory         : /Users/peterk/wfu/
 Main file repository           : /var/folders/2v/xbgp75_9785319ghcgb4zr4r0000gr/T//molpro.005QGFZpnZ/

 id        : peterk

 Nodes        nprocs
 pjk2022.local    1
 GA implementation: MPI file
 GA implementation (serial work in mppx): MPI file

 Using customized tuning parameters: mindgm=1; mindgv=20; mindgc=4; mindgr=1; noblas=0; minvec=7
 default implementation of scratch files=df  


 Variables initialized (1037), CPU time= 0.00 sec
 
 
 
 geometry={
 20
  C    -0.0068699    0.7702573    0.4144412
  C     0.0068699   -0.7702573    0.4144412
  C     1.4079116   -1.3250763    0.6406010
  H    -0.6108025   -1.0881108    1.2568246
  C    -0.6003722   -1.3575502   -0.8538179
  C    -1.4079116    1.3250763    0.6406010
  C     0.6003722    1.3575502   -0.8538179
  H     0.6108025    1.0881108    1.2568246
  H     1.3847819   -2.3993600    0.8127175
  H     2.0448598   -1.1492812   -0.2243403
  H     1.8818018   -0.8616367    1.5028837
  H     0.0501521   -1.1813558   -1.7079723
  H    -0.7346481   -2.4327435   -0.7611970
  H    -1.5708616   -0.9207720   -1.0801440
  H     0.7346481    2.4327435   -0.7611970
  H     1.5708616    0.9207720   -1.0801440
  H    -0.0501521    1.1813558   -1.7079723
  H    -1.3847819    2.3993600    0.8127175
  H    -2.0448598    1.1492812   -0.2243403
  H    -1.8818018    0.8616367    1.5028837
 }
 basis=cc-pVTZ
 core,small
 
 
 hf; ccsd(t)
 
 
 
 {put,xml;noorbitals,nobasis}
 Commands initialized (841), CPU time= 0.00 sec, 716 directives.
 Default parameters read. Elapsed time= 0.05 sec

 Checking input...
 Passed
1


                                         ***  PROGRAM SYSTEM MOLPRO  ***
                                       Copyright, TTI GmbH Stuttgart, 2015
                                    Version 2023.1 linked Sat Jul 22 07:59:25 2023


 **********************************************************************************************************************************
 LABEL *                                                                                                                                                                 
  64 bit serial version                                                                  DATE: 02-Aug-23          TIME: 11:24:33  
 **********************************************************************************************************************************

 SHA1:             401d111a1dbfa49388eacdf0424f85138b2d30d0
 **********************************************************************************************************************************

 Memory per process:      3146 MW
 Total memory per node:   4194 MW
 Total GA space:          1049 MW

 GA preallocation disabled
 GA check enabled

 Geometry recognized as XYZ


 Variable memory set to 3145.7 MW

 SETTING BASIS          =    CC-PVTZ


 Recomputing integrals since basis changed


 Using spherical harmonics

 Library entry C      S cc-pVTZ              selected for orbital group  1
 Library entry C      P cc-pVTZ              selected for orbital group  1
 Library entry C      D cc-pVTZ              selected for orbital group  1
 Library entry C      F cc-pVTZ              selected for orbital group  1
 Library entry H      S cc-pVTZ              selected for orbital group  2
 Library entry H      P cc-pVTZ              selected for orbital group  2
 Library entry H      D cc-pVTZ              selected for orbital group  2


 PROGRAM * SEWARD (Integral evaluation for generally contracted gaussian basis sets)     Author: Roland Lindh, 1990

 Geometry written to block  1 of record 700


 Point group  C2  



 ATOMIC COORDINATES

 NR  ATOM    CHARGE       X              Y              Z

   1  C       6.00   -0.012982230    1.455575342    0.783180363
   2  C       6.00    0.012982230   -1.455575342    0.783180363
   3  C       6.00    2.660567332   -2.504031301    1.210560445
   4  C       6.00   -2.660567332    2.504031301    1.210560445
   5  H       1.00   -1.154249441   -2.056231405    2.375054281
   6  H       1.00    1.154249441    2.056231405    2.375054281
   7  C       6.00   -1.134539031   -2.565398078   -1.613481991
   8  C       6.00    1.134539031    2.565398078   -1.613481991
   9  H       1.00    2.616858533   -4.534133274    1.535813492
  10  H       1.00   -2.616858533    4.534133274    1.535813492
  11  H       1.00    3.864224985   -2.171826708   -0.423941726
  12  H       1.00   -3.864224985    2.171826708   -0.423941726
  13  H       1.00    3.556090023   -1.628257382    2.840038590
  14  H       1.00   -3.556090023    1.628257382    2.840038590
  15  H       1.00    0.094773734   -2.232438918   -3.227599875
  16  H       1.00   -0.094773734    2.232438918   -3.227599875
  17  H       1.00   -1.388283707   -4.597218946   -1.438453857
  18  H       1.00    1.388283707    4.597218946   -1.438453857
  19  H       1.00   -2.968498204   -1.740006903   -2.041176335
  20  H       1.00    2.968498204    1.740006903   -2.041176335

 Bond lengths in Bohr (Angstrom)

 1-2  2.911266471  1-4  2.879517408  1-6  2.063317729  1-8  2.879670465  2-3  2.879517408
     ( 1.540575871)     ( 1.523774991)     ( 1.091860721)     ( 1.523855985)     ( 1.523774991)

  2- 5  2.063317729   2- 7  2.879670465   3- 9  2.056456667   3-11  2.056878457   3-13  2.055271241
       ( 1.091860721)       ( 1.523855985)       ( 1.088230004)       ( 1.088453205)       ( 1.087602703)

  4-10  2.056456667   4-12  2.056878457   4-14  2.055271241   7-15  2.056075927   7-17  2.055071105
       ( 1.088230004)       ( 1.088453205)       ( 1.087602703)       ( 1.088028525)       ( 1.087496796)

  7-19  2.056112665   8-16  2.056075927   8-18  2.055071105   8-20  2.056112665
       ( 1.088047965)       ( 1.088028525)       ( 1.087496796)       ( 1.088047965)

 Bond angles

  1- 2- 3  111.85716379   1- 2- 5  106.62191359   1- 2- 7  112.44707730   1- 4-10  111.30754942

  1- 4-12  111.18022733   1- 4-14  111.29354834   1- 8-16  110.65289770   1- 8-18  111.06077852

  1- 8-20  111.95293704   2- 1- 4  111.85716379   2- 1- 6  106.62191359   2- 1- 8  112.44707730

  2- 3- 9  111.30754942   2- 3-11  111.18022733   2- 3-13  111.29354834   2- 7-15  110.65289770

  2- 7-17  111.06077852   2- 7-19  111.95293704   3- 2- 5  107.43577620   3- 2- 7  110.46241674

  4-1-6  107.43577620   4-1-8  110.46241674   5-2-7  107.72706582   6-1-8  107.72706582

  9- 3-11  107.31115137   9- 3-13  107.72904426  10- 4-12  107.31115137  10- 4-14  107.72904426

 11- 3-13  107.83184857  12- 4-14  107.83184857  15- 7-17  107.50517599  15- 7-19  107.75736744

 16- 8-18  107.50517599  16- 8-20  107.75736744  17- 7-19  107.72660905  18- 8-20  107.72660905

 NUCLEAR CHARGE:                   50
 NUMBER OF PRIMITIVE AOS:         520
 NUMBER OF SYMMETRY AOS:          476
 NUMBER OF CONTRACTIONS:          376   (  188A   +  188B   )
 NUMBER OF INNER CORE ORBITALS:     0   (    0A   +    0B   )
 NUMBER OF OUTER CORE ORBITALS:     6   (    3A   +    3B   )
 NUMBER OF VALENCE ORBITALS:       38   (   19A   +   19B   )


 NUCLEAR REPULSION ENERGY  265.42164491


 Eigenvalues of metric

         1 0.742E-03 0.885E-03 0.966E-03 0.112E-02 0.122E-02 0.138E-02 0.144E-02 0.153E-02
         2 0.397E-03 0.482E-03 0.797E-03 0.110E-02 0.111E-02 0.123E-02 0.124E-02 0.136E-02


 Contracted 2-electron integrals neglected if value below      1.0D-11
 AO integral compression algorithm  1   Integral accuracy      1.0D-11

     5156.635 MB (compressed) written to integral file ( 46.5%)


 NUMBER OF SORTED TWO-ELECTRON INTEGRALS: 1262540790.     BUFFER LENGTH:  32768
 NUMBER OF SEGMENTS:  40  SEGMENT LENGTH:   31999469      RECORD LENGTH: 524288

 Memory used in sort:      32.56 MW

 SORT1 READ  1386131640. AND WROTE  1209501965. INTEGRALS IN   3482 RECORDS. CPU TIME:    12.83 SEC, REAL TIME:    17.30 SEC
 SORT2 READ  1209501965. AND WROTE  1262540790. INTEGRALS IN  19671 RECORDS. CPU TIME:     6.74 SEC, REAL TIME:    24.23 SEC

 FILE SIZES:   FILE 1:  5190.5 MBYTE,  FILE 4: 14604.6 MBYTE,   TOTAL:  19795.1 MBYTE

 OPERATOR DM      FOR CENTER  0  COORDINATES:    0.000000    0.000000    0.000000


 **********************************************************************************************************************************
 DATASETS  * FILE   NREC   LENGTH (MB)   RECORD NAMES
              1      19     4748.67       500      610      700      900      950      970     1000      129      960     1100   
                                          VAR    BASINP    GEOM    SYMINP    ZMAT    AOBASIS   BASIS     P2S    ABASIS      S 
                                         1400     1410     1200     1210     1080     1600     1650     1300     1700   
                                           T        V       H0       H01     AOSYM     SMH    MOLCAS    ERIS     OPER   

 PROGRAMS   *        TOTAL       INT
 CPU TIMES  *        66.95     66.87
 REAL TIME  *        92.47 SEC
 DISK USED  *        18.44 GB
 **********************************************************************************************************************************


 Program * Restricted Hartree-Fock

 Orbital guess generated from atomic densities. Full valence occupancy:   22  22

 Initial occupancy:  13  12

 NELEC=   50   SYM=1   MS2= 0   THRE=1.0D-08   THRD=3.2D-06   THRG=3.2D-06  HFMA2=F  DIIS_START=2   DIIS_MAX=10   DIIS_INCORE=F

 Level shifts:    0.00 (CLOSED)    0.00 (OPEN)    0.30 (GAP_MIN)

 ITER           ETOT              DE          GRAD        DDIFF     DIIS  NEXP   TIME(IT)  TIME(TOT)  DIAG
   1     -235.35158026    -235.35158026     0.00D+00     0.52D-01     0     0       3.68      6.90    start
   2     -235.43248464      -0.08090438     0.37D-02     0.51D-02     1     0       4.13     11.03    diag
   3     -235.44339797      -0.01091333     0.15D-02     0.16D-02     2     0       3.51     14.54    diag
   4     -235.44513184      -0.00173388     0.49D-03     0.59D-03     3     0       3.45     17.99    diag
   5     -235.44518400      -0.00005215     0.90D-04     0.13D-03     4     0       3.46     21.45    diag
   6     -235.44518892      -0.00000493     0.27D-04     0.49D-04     5     0       3.56     25.01    diag
   7     -235.44518906      -0.00000013     0.38D-05     0.92D-05     6     0       3.61     28.62    diag
   8     -235.44518907      -0.00000001     0.99D-06     0.21D-05     7     0       3.80     32.42    fixocc
   9     -235.44518907      -0.00000000     0.25D-06     0.42D-06     0     0       3.49     35.91    diag

 Final occupancy:  13  12

 !RHF STATE 1.1 Energy               -235.445189067145
  RHF One-electron energy            -842.428507226035
  RHF Two-electron energy             341.561673248318
  RHF Kinetic energy                  235.332574450817
  RHF Nuclear energy                  265.421644910571
  RHF Virial quotient                  -1.000478533907

 !RHF STATE 1.1 Dipole moment           0.00000000     0.00000000     0.04887588
 Dipole moment /Debye                   0.00000000     0.00000000     0.12423010

 Orbital energies:

           1.1          2.1          3.1          4.1          5.1          6.1          7.1          8.1          9.1         10.1
    -11.217442   -11.204229   -11.203668    -1.105313    -0.925163    -0.835090    -0.641878    -0.603927    -0.550246    -0.526708

          11.1         12.1         13.1         14.1         15.1
     -0.488657    -0.445529    -0.435277     0.137052     0.169445

           1.2          2.2          3.2          4.2          5.2          6.2          7.2          8.2          9.2         10.2
    -11.216853   -11.204225   -11.203672    -1.011265    -0.930169    -0.735833    -0.614768    -0.561518    -0.537046    -0.520178

          11.2         12.2         13.2         14.2
     -0.486889    -0.447047     0.166175     0.173266


 HOMO     13.1    -0.435277 =     -11.8445eV
 LUMO     14.1     0.137052 =       3.7294eV
 LUMO-HOMO         0.572329 =      15.5739eV

 Orbitals saved in record  2100.2


 **********************************************************************************************************************************
 DATASETS  * FILE   NREC   LENGTH (MB)   RECORD NAMES
              1      19     4748.67       500      610      700      900      950      970     1000      129      960     1100   
                                          VAR    BASINP    GEOM    SYMINP    ZMAT    AOBASIS   BASIS     P2S    ABASIS      S 
                                         1400     1410     1200     1210     1080     1600     1650     1300     1700   
                                           T        V       H0       H01     AOSYM     SMH    MOLCAS    ERIS     OPER   

              2       4        1.84       700     1000      520     2100   
                                         GEOM     BASIS   MCVARS     RHF  

 PROGRAMS   *        TOTAL    HF-SCF       INT
 CPU TIMES  *       102.86     35.91     66.87
 REAL TIME  *       133.27 SEC
 DISK USED  *        18.44 GB
 **********************************************************************************************************************************


 PROGRAM * CCSD (Closed-shell coupled cluster)     Authors: C. Hampel, H.-J. Werner, 1991, M. Deegan, P.J. Knowles, 1992


 CORETYPE=SMALL

 Convergence thresholds:  THRVAR = 1.00D-08  THRDEN = 1.00D-06

 CCSD(T)     terms to be evaluated (factor= 1.000)


 Number of closed-shell orbitals:  25 (  13  12 )
 Number of external orbitals:     351 ( 175 176 )

 Molecular orbitals read from record     2100.2  Type=RHF/CANONICAL  

 Number of N-1 electron functions:              25
 Number of N-2 electron functions:             325
 Number of singly external CSFs:              4387
 Number of doubly external CSFs:          19254544
 Total number of CSFs:                    19258932

 Length of J-op  integral file:               0.00 MB
 Length of K-op  integral file:               4.92 MB
 Length of 3-ext integral record:             0.00 MB

 Memory could be reduced to 638.11 Mwords without degradation in triples

 Integral transformation finished. Total CPU:  72.27 sec, npass=  1  Memory used: 282.93 MW

 Reference energy:                   -235.44518907

 MP2 singlet pair energy:              -0.79656608
 MP2 triplet pair energy:              -0.37613583
 MP2 correlation energy:               -1.17270191
 MP2 total energy:                   -236.61789098

 SCS-MP2 correlation energy:           -1.18991937   (PS=  1.200000  PT=  0.333333)
 SCS-MP2 total energy:               -236.63510844

 ITER.      SQ.NORM     CORR.ENERGY   TOTAL ENERGY   ENERGY CHANGE        DEN1      VAR(S)    VAR(P)  DIIS     TIME  TIME/IT
   1      1.36677337    -1.24009476  -236.68528383    -0.06739285    -0.03997310  0.32D-02  0.52D-02  1  1   230.74    54.89
   2      1.39123785    -1.24459038  -236.68977944    -0.00449562    -0.02648347  0.52D-04  0.52D-03  2  2   293.30    59.95
   3      1.39802039    -1.24464316  -236.68983223    -0.00005278    -0.00442396  0.14D-04  0.30D-04  3  3   354.64    60.77
   4      1.39990535    -1.24465653  -236.68984560    -0.00001337    -0.00099150  0.81D-06  0.19D-05  4  4   412.69    60.35
   5      1.40017218    -1.24466592  -236.68985499    -0.00000938    -0.00008239  0.79D-07  0.15D-06  5  5   469.23    59.99
   6      1.40020563    -1.24466400  -236.68985307     0.00000192    -0.00000479  0.91D-08  0.10D-07  6  6   527.48    59.90
   7      1.40020871    -1.24466312  -236.68985219     0.00000088    -0.00000252  0.13D-08  0.94D-09  6  1   584.12    59.62
   8      1.40020884    -1.24466312  -236.68985219    -0.00000000     0.00000006  0.21D-09  0.94D-10  6  2   640.65    59.39

 Norm of t1 vector:      0.07443420      S-energy:    -0.00000006      T1 diagnostic:  0.00744342
                                                                       D1 diagnostic:  0.01635826
                                                                       D2 diagnostic:  0.14561553 (internal)

   CPU time for triples:   1877.04 sec for i =  1 - 21 / 25 (~  60.3 % done)
   CPU time for triples:   1301.88 sec for i = 22 - 25 / 25 (  100.0 % done)

 Total CPU time for triples:   3178.92 sec


 RESULTS
 =======

  Reference energy                   -235.445189067145

  Correlated core orbitals:             1.1       2.1       3.1       1.2       2.2       3.2
  Orbital energies:                   -11.2174  -11.2042  -11.2037  -11.2168  -11.2042  -11.2037

  CCSD core-core energy                -0.065286979035
  CCSD core-valence energy             -0.037711934121
  CCSD valence correlation energy      -1.141664211561

  CCSD singlet pair energy             -0.890918198824
  CCSD triplet pair energy             -0.353744868506
  CCSD correlation energy              -1.244663124717

  Triples (T) contribution             -0.045758758287
  Total correlation energy             -1.290421883004

  CCSD total energy                  -236.689852191862
  CCSD[T] energy                     -236.736622908091
  CCSD-T energy                      -236.735159750149
 !CCSD(T) total energy               -236.735610950149

 Timing summary (sec):

 STEP                 CPU(USER)    SYS     CPU(TOT)    WALL
 Transformation         72.67      2.85     75.52     75.88
 CCSD iterations       568.38     20.67    589.05    475.59
 Triples              3178.92    101.84   3280.76   3379.64

 Program statistics:

 Available memory in ccsd:              3145725487
 Min. memory needed in ccsd:              44171428
 Max. memory used in ccsd:                62428784
 Max. memory used in cckext:              53241607 ( 8 integral passes)



 **********************************************************************************************************************************
 DATASETS  * FILE   NREC   LENGTH (MB)   RECORD NAMES
              1      20     7080.81       500      610      700      900      950      970     1000      129      960     1100   
                                          VAR    BASINP    GEOM    SYMINP    ZMAT    AOBASIS   BASIS     P2S    ABASIS      S 
                                         1400     1410     1200     1210     1080     1600     1650     1300     1700     1380   
                                           T        V       H0       H01     AOSYM     SMH    MOLCAS    ERIS     OPER     JKOP   

              2       4        1.84       700     1000      520     2100   
                                         GEOM     BASIS   MCVARS     RHF  

 PROGRAMS   *        TOTAL   CCSD(T)    HF-SCF       INT
 CPU TIMES  *      3819.90   3717.04     35.91     66.87
 REAL TIME  *      4064.42 SEC
 DISK USED  *        18.44 GB
 **********************************************************************************************************************************

 Dump information in style XML to xml output                                                                      

 Orbitals will not be exported.

 **********************************************************************************************************************************

 CCSD(T)/cc-pVTZ energy=   -236.735610950149

         CCSD(T)          HF-SCF
   -236.73561095   -235.44518907
 **********************************************************************************************************************************
 Molpro calculation terminated
