
 Working directory              : /var/folders/2v/xbgp75_9785319ghcgb4zr4r0000gr/T//molpro.DfoHWnSWqU/
 Global scratch directory       : /var/folders/2v/xbgp75_9785319ghcgb4zr4r0000gr/T//molpro.DfoHWnSWqU/
 Wavefunction directory         : /Users/peterk/wfu/
 Main file repository           : /var/folders/2v/xbgp75_9785319ghcgb4zr4r0000gr/T//molpro.DfoHWnSWqU/

 id        : peterk

 Nodes        nprocs
 pjk2022.local    1
 GA implementation: MPI file
 GA implementation (serial work in mppx): MPI file

 Using customized tuning parameters: mindgm=1; mindgv=20; mindgc=4; mindgr=1; noblas=0; minvec=7
 default implementation of scratch files=df  


 Variables initialized (1037), CPU time= 0.00 sec
 
 
 
 geometry={
 16
  C    -1.4595330   -1.1910594    0.1600327
  C    -2.8488073   -0.9628516    0.0993153
  C    -3.1539559    0.3260872   -0.2060017
  S    -1.7497644    1.2592017   -0.4444530
  C    -0.7185117   -0.0716168   -0.1000887
  C     0.7185117    0.0716168   -0.1000887
  S     1.7497644   -1.2592017   -0.4444530
  C     3.1539559   -0.3260872   -0.2060017
  C     2.8488073    0.9628516    0.0993153
  C     1.4595330    1.1910594    0.1600327
  H    -1.0099655   -2.1339875    0.4228504
  H    -3.5907346   -1.7189217    0.2898715
  H    -4.1235319    0.7747989   -0.3122418
  H     4.1235319   -0.7747989   -0.3122418
  H     3.5907346    1.7189217    0.2898715
  H     1.0099655    2.1339875    0.4228504
 }
 basis=cc-pVTZ
 core,small
 
 
 hf; ccsd(t)
 
 
 
 {put,xml;noorbitals,nobasis}
 Commands initialized (841), CPU time= 0.01 sec, 716 directives.
 Default parameters read. Elapsed time= 0.06 sec

 Checking input...
 Passed
1


                                         ***  PROGRAM SYSTEM MOLPRO  ***
                                       Copyright, TTI GmbH Stuttgart, 2015
                                    Version 2023.1 linked Sat Jul 22 07:59:25 2023


 **********************************************************************************************************************************
 LABEL *                                                                                                                                                                 
  64 bit serial version                                                                  DATE: 02-Aug-23          TIME: 12:20:12  
 **********************************************************************************************************************************

 SHA1:             401d111a1dbfa49388eacdf0424f85138b2d30d0
 **********************************************************************************************************************************

 Memory per process:      3146 MW
 Total memory per node:   4194 MW
 Total GA space:          1049 MW

 GA preallocation disabled
 GA check enabled

 Geometry recognized as XYZ


 Variable memory set to 3145.7 MW

 SETTING BASIS          =    CC-PVTZ


 Recomputing integrals since basis changed


 Using spherical harmonics

 Library entry C      S cc-pVTZ              selected for orbital group  1
 Library entry C      P cc-pVTZ              selected for orbital group  1
 Library entry C      D cc-pVTZ              selected for orbital group  1
 Library entry C      F cc-pVTZ              selected for orbital group  1
 Library entry S      S cc-pVTZ              selected for orbital group  2
 Library entry S      P cc-pVTZ              selected for orbital group  2
 Library entry S      D cc-pVTZ              selected for orbital group  2
 Library entry S      F cc-pVTZ              selected for orbital group  2
 Library entry H      S cc-pVTZ              selected for orbital group  4
 Library entry H      P cc-pVTZ              selected for orbital group  4
 Library entry H      D cc-pVTZ              selected for orbital group  4


 PROGRAM * SEWARD (Integral evaluation for generally contracted gaussian basis sets)     Author: Roland Lindh, 1990

 Geometry written to block  1 of record 700


 Point group  C2  



 ATOMIC COORDINATES

 NR  ATOM    CHARGE       X              Y              Z

   1  C       6.00   -2.758117640   -2.250776064    0.302417974
   2  C       6.00    2.758117640    2.250776064    0.302417974
   3  C       6.00   -5.383465579   -1.819525823    0.187678717
   4  C       6.00    5.383465579    1.819525823    0.187678717
   5  C       6.00   -5.960112860    0.616215501   -0.389286794
   6  C       6.00    5.960112860   -0.616215501   -0.389286794
   7  S      16.00   -3.306575499    2.379546349   -0.839894445
   8  S      16.00    3.306575499   -2.379546349   -0.839894445
   9  C       6.00   -1.357790330   -0.135336138   -0.189140231
  10  C       6.00    1.357790330    0.135336138   -0.189140231
  11  H       1.00   -1.908558190   -4.032651928    0.799071448
  12  H       1.00    1.908558190    4.032651928    0.799071448
  13  H       1.00   -6.785504980   -3.248291243    0.547777746
  14  H       1.00    6.785504980    3.248291243    0.547777746
  15  H       1.00   -7.792345957    1.464157723   -0.590051487
  16  H       1.00    7.792345957   -1.464157723   -0.590051487

 Bond lengths in Bohr (Angstrom)

  1- 3  2.663004632   1- 9  2.584111477   1-11  2.035558284   2- 4  2.663004632   2-10  2.584111477
       ( 1.409201364)       ( 1.367452904)       ( 1.077171055)       ( 1.409201364)       ( 1.367452904)

  2-12  2.035558284   3- 5  2.568705332   3-13  2.033901772   4- 6  2.568705332   4-14  2.033901772
       ( 1.077171055)       ( 1.359300323)       ( 1.076294467)       ( 1.359300323)       ( 1.076294467)

  5- 7  3.217707796   5-15  2.028889005   6- 8  3.217707796   6-16  2.028889005   7- 9  3.247441855
       ( 1.702737637)       ( 1.073641825)       ( 1.702737637)       ( 1.073641825)       ( 1.718472223)

  8-10  3.247441855   9-10  2.729036791
       ( 1.718472223)       ( 1.444144077)

 Bond angles

  1- 3- 5  112.61589754   1- 3-13  123.93134747   1- 9- 7  110.29731696   1- 9-10  128.34688330

  2- 4- 6  112.61589754   2- 4-14  123.93134747   2-10- 8  110.29731696   2-10- 9  128.34688330

  3- 1- 9  113.17056137   3- 1-11  124.31411267   3- 5- 7  111.46714242   3- 5-15  128.40798942

  4- 2-10  113.17056137   4- 2-12  124.31411267   4- 6- 8  111.46714242   4- 6-16  128.40798942

  5- 3-13  123.44470076   5- 7- 9   92.43181715   6- 4-14  123.44470076   6- 8-10   92.43181715

  7- 5-15  120.12213301   7- 9-10  121.35444924   8- 6-16  120.12213301   8-10- 9  121.35444924

  9- 1-11  122.46990442  10- 2-12  122.46990442

 NUCLEAR CHARGE:                   86
 NUMBER OF PRIMITIVE AOS:         606
 NUMBER OF SYMMETRY AOS:          550
 NUMBER OF CONTRACTIONS:          392   (  196A   +  196B   )
 NUMBER OF INNER CORE ORBITALS:     2   (    1A   +    1B   )
 NUMBER OF OUTER CORE ORBITALS:    16   (    8A   +    8B   )
 NUMBER OF VALENCE ORBITALS:       46   (   23A   +   23B   )


 NUCLEAR REPULSION ENERGY  637.31599080


 Eigenvalues of metric

         1 0.725E-04 0.424E-03 0.617E-03 0.816E-03 0.925E-03 0.112E-02 0.120E-02 0.130E-02
         2 0.850E-04 0.105E-03 0.577E-03 0.701E-03 0.944E-03 0.102E-02 0.123E-02 0.133E-02


 Contracted 2-electron integrals neglected if value below      1.0D-11
 AO integral compression algorithm  1   Integral accuracy      1.0D-11

     6312.952 MB (compressed) written to integral file ( 47.5%)


 NUMBER OF SORTED TWO-ELECTRON INTEGRALS: 1490905850.     BUFFER LENGTH:  32768
 NUMBER OF SEGMENTS:  47  SEGMENT LENGTH:   31999968      RECORD LENGTH: 524288

 Memory used in sort:      32.56 MW

 SORT1 READ  1662289248. AND WROTE  1445509130. INTEGRALS IN   4160 RECORDS. CPU TIME:    15.47 SEC, REAL TIME:    20.12 SEC
 SORT2 READ  1445509130. AND WROTE  1490905850. INTEGRALS IN  24082 RECORDS. CPU TIME:     8.66 SEC, REAL TIME:    18.45 SEC

 FILE SIZES:   FILE 1:  6347.0 MBYTE,  FILE 4: 17448.4 MBYTE,   TOTAL:  23795.4 MBYTE

 OPERATOR DM      FOR CENTER  0  COORDINATES:    0.000000    0.000000    0.000000


 **********************************************************************************************************************************
 DATASETS  * FILE   NREC   LENGTH (MB)   RECORD NAMES
              1      19     5680.62       500      610      700      900      950      970     1000      129      960     1100   
                                          VAR    BASINP    GEOM    SYMINP    ZMAT    AOBASIS   BASIS     P2S    ABASIS      S 
                                         1400     1410     1200     1210     1080     1600     1650     1300     1700   
                                           T        V       H0       H01     AOSYM     SMH    MOLCAS    ERIS     OPER   

 PROGRAMS   *        TOTAL       INT
 CPU TIMES  *        72.37     72.28
 REAL TIME  *        91.43 SEC
 DISK USED  *        22.16 GB
 **********************************************************************************************************************************


 Program * Restricted Hartree-Fock

 Orbital guess generated from atomic densities. Full valence occupancy:   32  32

 Initial occupancy:  22  21

 NELEC=   86   SYM=1   MS2= 0   THRE=1.0D-08   THRD=3.2D-06   THRG=3.2D-06  HFMA2=F  DIIS_START=2   DIIS_MAX=10   DIIS_INCORE=F

 Level shifts:    0.00 (CLOSED)    0.00 (OPEN)    0.30 (GAP_MIN)

 ITER           ETOT              DE          GRAD        DDIFF     DIIS  NEXP   TIME(IT)  TIME(TOT)  DIAG
   1    -1101.47756457   -1101.47756457     0.00D+00     0.63D-01     0     0       4.42      8.37    start
   2    -1101.57214520      -0.09458063     0.32D-02     0.55D-02     1     0       4.22     12.59    diag
   3    -1101.59713709      -0.02499190     0.18D-02     0.23D-02     2     0       4.19     16.78    diag
   4    -1101.60090920      -0.00377211     0.48D-03     0.99D-03     3     0       4.09     20.87    diag
   5    -1101.60126636      -0.00035716     0.15D-03     0.25D-03     4     0       4.08     24.95    diag
   6    -1101.60139936      -0.00013301     0.78D-04     0.16D-03     5     0       4.24     29.19    diag
   7    -1101.60144166      -0.00004229     0.33D-04     0.11D-03     6     0       4.28     33.47    diag
   8    -1101.60144676      -0.00000511     0.13D-04     0.41D-04     7     0       4.43     37.90    fixocc
   9    -1101.60144714      -0.00000038     0.38D-05     0.13D-04     8     0       4.40     42.30    diag
  10    -1101.60144717      -0.00000002     0.98D-06     0.28D-05     9     0       4.15     46.45    diag/orth
  11    -1101.60144717      -0.00000000     0.41D-06     0.11D-05     9     0       4.42     50.87    diag
  12    -1101.60144717      -0.00000000     0.14D-06     0.27D-06     0     0       4.13     55.00    diag

 Final occupancy:  22  21

 !RHF STATE 1.1 Energy              -1101.601447171061
  RHF One-electron energy           -2780.165343944652
  RHF Two-electron energy            1041.247905978170
  RHF Kinetic energy                 1101.453813161531
  RHF Nuclear energy                  637.315990795421
  RHF Virial quotient                  -1.000134035588

 !RHF STATE 1.1 Dipole moment           0.00000000     0.00000000     0.17000094
 Dipole moment /Debye                   0.00000000     0.00000000     0.43209930

 Orbital energies:

           1.1          2.1          3.1          4.1          5.1          6.1          7.1          8.1          9.1         10.1
    -91.983188   -11.274035   -11.259710   -11.236873   -11.235495    -8.985170    -6.666180    -6.665642    -6.664845    -1.199302

          11.1         12.1         13.1         14.1         15.1         16.1         17.1         18.1         19.1         20.1
     -1.037883    -0.984384    -0.809046    -0.745462    -0.707745    -0.574620    -0.558615    -0.546581    -0.512836    -0.466676

          21.1         22.1         23.1         24.1
     -0.374414    -0.348081     0.078849     0.153013

           1.2          2.2          3.2          4.2          5.2          6.2          7.2          8.2          9.2         10.2
    -91.983188   -11.273159   -11.259711   -11.236873   -11.235495    -8.985169    -6.666179    -6.665642    -6.664845    -1.170087

          11.2         12.2         13.2         14.2         15.2         16.2         17.2         18.2         19.2         20.2
     -0.999012    -0.952674    -0.779317    -0.718652    -0.646277    -0.570581    -0.555798    -0.515031    -0.482121    -0.352230

          21.2         22.2         23.2
     -0.285918     0.144967     0.149293


 HOMO     21.2    -0.285918 =      -7.7802eV
 LUMO     23.1     0.078849 =       2.1456eV
 LUMO-HOMO         0.364767 =       9.9258eV

 Orbitals saved in record  2100.2


 **********************************************************************************************************************************
 DATASETS  * FILE   NREC   LENGTH (MB)   RECORD NAMES
              1      19     5680.62       500      610      700      900      950      970     1000      129      960     1100   
                                          VAR    BASINP    GEOM    SYMINP    ZMAT    AOBASIS   BASIS     P2S    ABASIS      S 
                                         1400     1410     1200     1210     1080     1600     1650     1300     1700   
                                           T        V       H0       H01     AOSYM     SMH    MOLCAS    ERIS     OPER   

              2       4        1.88       700     1000      520     2100   
                                         GEOM     BASIS   MCVARS     RHF  

 PROGRAMS   *        TOTAL    HF-SCF       INT
 CPU TIMES  *       127.37     55.00     72.28
 REAL TIME  *       154.80 SEC
 DISK USED  *        22.16 GB
 **********************************************************************************************************************************


 PROGRAM * CCSD (Closed-shell coupled cluster)     Authors: C. Hampel, H.-J. Werner, 1991, M. Deegan, P.J. Knowles, 1992


 CORETYPE=SMALL

 Convergence thresholds:  THRVAR = 1.00D-08  THRDEN = 1.00D-06

 CCSD(T)     terms to be evaluated (factor= 1.000)


 Number of core orbitals:           2 (   1   1 )
 Number of closed-shell orbitals:  41 (  21  20 )
 Number of external orbitals:     349 ( 174 175 )

 Molecular orbitals read from record     2100.2  Type=RHF/CANONICAL  

 Checking core orbitals using projection, core_type=SMALL
 Threshold for active space selection:  0.30


 Number of target functions:              2   (   1   1 )

 Number of N-1 electron functions:              41
 Number of N-2 electron functions:             861
 Number of singly external CSFs:              7154
 Number of doubly external CSFs:          51194025
 Total number of CSFs:                    51201180

 Length of J-op  integral file:               0.00 MB
 Length of K-op  integral file:               5.34 MB
 Length of 3-ext integral record:             0.00 MB

 Memory could be reduced to 1038.85 Mwords without degradation in triples

 Integral transformation finished. Total CPU: 153.80 sec, npass=  1  Memory used: 546.61 MW

 Reference energy:                  -1101.60144717

 MP2 singlet pair energy:              -1.11650150
 MP2 triplet pair energy:              -0.69480922
 MP2 correlation energy:               -1.81131073
 MP2 total energy:                  -1103.41275790

 SCS-MP2 correlation energy:           -1.77212754   (PS=  1.200000  PT=  0.333333)
 SCS-MP2 total energy:              -1103.37357471

 ITER.      SQ.NORM     CORR.ENERGY   TOTAL ENERGY   ENERGY CHANGE        DEN1      VAR(S)    VAR(P)  DIIS     TIME  TIME/IT
   1      1.58080361    -1.83636650 -1103.43781368    -0.02505578     0.02450515  0.92D-02  0.15D-01  1  1   573.66   278.22
   2      1.62212995    -1.83985656 -1103.44130373    -0.00349006    -0.04332262  0.18D-03  0.15D-02  2  2   896.92   303.95
   3      1.63592282    -1.83958013 -1103.44102730     0.00027643    -0.00656966  0.14D-03  0.11D-03  3  3  1200.85   313.01
   4      1.64199003    -1.83953525 -1103.44098242     0.00004488    -0.00221953  0.15D-04  0.19D-04  4  4  1461.48   304.96
   5      1.64441938    -1.83958734 -1103.44103451    -0.00005209    -0.00056740  0.56D-05  0.19D-05  5  5  1748.75   305.80
   6      1.64514552    -1.83957403 -1103.44102120     0.00001331    -0.00005765  0.12D-05  0.34D-06  6  6  2032.77   305.50
   7      1.64538625    -1.83956455 -1103.44101172     0.00000948    -0.00001177  0.33D-06  0.96D-07  6  1  2313.19   303.73
   8      1.64549583    -1.83956424 -1103.44101141     0.00000031    -0.00001311  0.74D-07  0.24D-07  6  2  2600.35   303.42
   9      1.64553665    -1.83956207 -1103.44100924     0.00000217     0.00000530  0.45D-08  0.55D-08  6  4  2880.05   302.26
  10      1.64554996    -1.83956195 -1103.44100912     0.00000013    -0.00000116  0.85D-09  0.48D-09  6  3  3163.62   301.96
  11      1.64555193    -1.83956201 -1103.44100918    -0.00000007     0.00000010  0.12D-09  0.80D-10  6  5  3464.17   303.75

 Norm of t1 vector:      0.13076016      S-energy:     0.00000025      T1 diagnostic:  0.01021065
                                                                       D1 diagnostic:  0.04010460
                                                                       D2 diagnostic:  0.19610405 (internal)

 Doubles amplitudes (print threshold =  0.500E-01):

         I         J         SYM. A    SYM. B    A         B      T(IJ, AB)

        41        41         1         1         1         1     -0.05590886

   CPU time for triples:   1806.49 sec for i =  1 - 21 / 41 (~  14.2 % done)
   CPU time for triples:   1931.85 sec for i = 22 - 27 / 41 (~  29.5 % done)
   CPU time for triples:   1887.23 sec for i = 28 - 31 / 41 (~  44.1 % done)
   CPU time for triples:   1906.23 sec for i = 32 - 34 / 41 (~  57.8 % done)
   CPU time for triples:   2349.01 sec for i = 35 - 37 / 41 (~  74.0 % done)
   CPU time for triples:   2894.89 sec for i = 38 - 40 / 41 (~  93.0 % done)
   CPU time for triples:   1214.24 sec for i = 41 - 41 / 41 (  100.0 % done)

 Total CPU time for triples:  13989.94 sec


 RESULTS
 =======

  Reference energy                  -1101.601447171057

  Correlated core orbitals:             2.1       3.1       4.1       5.1       6.1       7.1       8.1       9.1       2.2       3.2
                                        4.2       5.2       6.2       7.2       8.2       9.2
  Orbital energies:                   -11.2740  -11.2597  -11.2369  -11.2355   -8.9852   -6.6662   -6.6656   -6.6648  -11.2732  -11.2597
                                      -11.2369  -11.2355   -8.9852   -6.6662   -6.6656   -6.6648

  CCSD core-core energy                -0.129134021151
  CCSD core-valence energy             -0.075711206753
  CCSD valence correlation energy      -1.634716785580

  CCSD singlet pair energy             -1.218247870155
  CCSD triplet pair energy             -0.621314398170
  CCSD correlation energy              -1.839562013484

  Triples (T) contribution             -0.098657306079
  Total correlation energy             -1.938219319563

  CCSD total energy                 -1103.441009184541
  CCSD[T] energy                    -1103.541783369835
  CCSD-T energy                     -1103.538797491510
 !CCSD(T) total energy              -1103.539666490620

 Timing summary (sec):

 STEP                 CPU(USER)    SYS     CPU(TOT)    WALL
 Transformation        155.85      6.06    161.91    160.64
 CCSD iterations      3310.29    119.40   3429.69   3343.68
 Triples             13989.94    454.40  14444.34  15150.31

 Program statistics:

 Available memory in ccsd:              3145721254
 Min. memory needed in ccsd:             115807495
 Max. memory used in ccsd:               165099878
 Max. memory used in cckext:             140604316 (11 integral passes)



 **********************************************************************************************************************************
 DATASETS  * FILE   NREC   LENGTH (MB)   RECORD NAMES
              1      20     9773.27       500      610      700      900      950      970     1000      129      960     1100   
                                          VAR    BASINP    GEOM    SYMINP    ZMAT    AOBASIS   BASIS     P2S    ABASIS      S 
                                         1400     1410     1200     1210     1080     1600     1650     1300     1700     1380   
                                           T        V       H0       H01     AOSYM     SMH    MOLCAS    ERIS     OPER     JKOP   

              2       4        1.88       700     1000      520     2100   
                                         GEOM     BASIS   MCVARS     RHF  

 PROGRAMS   *        TOTAL   CCSD(T)    HF-SCF       INT
 CPU TIMES  *     17456.00  17328.63     55.00     72.28
 REAL TIME  *     18809.67 SEC
 DISK USED  *        22.16 GB
 **********************************************************************************************************************************

 Dump information in style XML to xml output                                                                      

 Orbitals will not be exported.

 **********************************************************************************************************************************

 CCSD(T)/cc-pVTZ energy=  -1103.539666490620

         CCSD(T)          HF-SCF
  -1103.53966649  -1101.60144717
 **********************************************************************************************************************************
 Molpro calculation terminated
