
 Working directory              : /var/folders/2v/xbgp75_9785319ghcgb4zr4r0000gr/T//molpro.3McbEOWfFq/
 Global scratch directory       : /var/folders/2v/xbgp75_9785319ghcgb4zr4r0000gr/T//molpro.3McbEOWfFq/
 Wavefunction directory         : /Users/peterk/wfu/
 Main file repository           : /var/folders/2v/xbgp75_9785319ghcgb4zr4r0000gr/T//molpro.3McbEOWfFq/

 id        : peterk

 Nodes        nprocs
 pjk2022.local    1
 GA implementation: MPI file
 GA implementation (serial work in mppx): MPI file

 Using customized tuning parameters: mindgm=1; mindgv=20; mindgc=4; mindgr=1; noblas=0; minvec=7
 default implementation of scratch files=df  


 Variables initialized (1037), CPU time= 0.00 sec
 
 
 
 geometry={
 20
  C    -0.0187703    0.7762139    0.1895647
  C     0.0187703   -0.7762139    0.1895647
  C     1.1577036   -1.2575558    1.0753312
  H    -0.9139647   -1.1210949    0.6423436
  C     0.1078564   -1.4161726   -1.1853194
  C    -0.1078564    1.4161726   -1.1853194
  H     0.9139647    1.1210949    0.6423436
  C    -1.1577036    1.2575558    1.0753312
  H     0.0191030    2.4918657   -1.1130497
  H     0.6550032    1.0414043   -1.8618886
  H    -1.0780969    1.2248344   -1.6480076
  H    -0.0191030   -2.4918657   -1.1130497
  H    -0.6550032   -1.0414043   -1.8618886
  H     1.0780969   -1.2248344   -1.6480076
  H     1.1872672   -2.3424319    1.1524796
  H     2.1123185   -0.9254986    0.6672670
  H     1.0674291   -0.8480126    2.0803607
  H    -1.1872672    2.3424319    1.1524796
  H    -2.1123185    0.9254986    0.6672670
  H    -1.0674291    0.8480126    2.0803607
 }
 basis=cc-pVDZ
 core,small
 
 
 hf; ccsd
 
 
 
 {put,xml;noorbitals,nobasis}
 Commands initialized (841), CPU time= 0.01 sec, 716 directives.
 Default parameters read. Elapsed time= 0.05 sec

 Checking input...
 Passed
1


                                         ***  PROGRAM SYSTEM MOLPRO  ***
                                       Copyright, TTI GmbH Stuttgart, 2015
                                    Version 2023.1 linked Sat Jul 22 07:59:25 2023


 **********************************************************************************************************************************
 LABEL *                                                                                                                                                                 
  64 bit serial version                                                                  DATE: 02-Aug-23          TIME: 09:00:57  
 **********************************************************************************************************************************

 SHA1:             401d111a1dbfa49388eacdf0424f85138b2d30d0
 **********************************************************************************************************************************

 Memory per process:      3146 MW
 Total memory per node:   4194 MW
 Total GA space:          1049 MW

 GA preallocation disabled
 GA check enabled

 Geometry recognized as XYZ


 Variable memory set to 3145.7 MW

 SETTING BASIS          =    CC-PVDZ


 Recomputing integrals since basis changed


 Using spherical harmonics

 Library entry C      S cc-pVDZ              selected for orbital group  1
 Library entry C      P cc-pVDZ              selected for orbital group  1
 Library entry C      D cc-pVDZ              selected for orbital group  1
 Library entry H      S cc-pVDZ              selected for orbital group  2
 Library entry H      P cc-pVDZ              selected for orbital group  2


 PROGRAM * SEWARD (Integral evaluation for generally contracted gaussian basis sets)     Author: Roland Lindh, 1990

 Geometry written to block  1 of record 700


 Point group  C2  



 ATOMIC COORDINATES

 NR  ATOM    CHARGE       X              Y              Z

   1  C       6.00   -0.035470726    1.466831685    0.358225366
   2  C       6.00    0.035470726   -1.466831685    0.358225366
   3  C       6.00    2.187742737   -2.376436048    2.032081461
   4  C       6.00   -2.187742737    2.376436048    2.032081461
   5  H       1.00   -1.727142971   -2.118562321    1.213853482
   6  H       1.00    1.727142971    2.118562321    1.213853482
   7  C       6.00    0.203819057   -2.676178359   -2.239929036
   8  C       6.00   -0.203819057    2.676178359   -2.239929036
   9  H       1.00    0.036099438    4.708943712   -2.103359096
  10  H       1.00   -0.036099438   -4.708943712   -2.103359096
  11  H       1.00    1.237776659    1.967968912   -3.518459529
  12  H       1.00   -1.237776659   -1.967968912   -3.518459529
  13  H       1.00   -2.037307877    2.314601564   -3.114283015
  14  H       1.00    2.037307877   -2.314601564   -3.114283015
  15  H       1.00    2.243609845   -4.426554757    2.177870808
  16  H       1.00   -2.243609845    4.426554757    2.177870808
  17  H       1.00    3.991703453   -1.748938883    1.260951882
  18  H       1.00   -3.991703453    1.748938883    1.260951882
  19  H       1.00    2.017148656   -1.602511564    3.931311963
  20  H       1.00   -2.017148656    1.602511564    3.931311963

 Bond lengths in Bohr (Angstrom)

 1-2  2.934520993  1-4  2.874273671  1-6  2.064863031  1-8  2.870760672  2-3  2.874273671
     ( 1.552881635)     ( 1.521000125)     ( 1.092678460)     ( 1.519141126)     ( 1.521000125)

  2- 5  2.064863031   2- 7  2.870760672   3-15  2.056055054   3-17  2.059773722   3-19  2.057945079
       ( 1.092678460)       ( 1.519141126)       ( 1.088017479)       ( 1.089985313)       ( 1.089017637)

  4-16  2.056055054   4-18  2.059773722   4-20  2.057945079   7-10  2.051425654   7-12  2.052900155
       ( 1.088017479)       ( 1.089985313)       ( 1.089017637)       ( 1.085567706)       ( 1.086347978)

  7-14  2.063229002   8- 9  2.051425654   8-11  2.052900155   8-13  2.063229002
       ( 1.091813768)       ( 1.085567706)       ( 1.086347978)       ( 1.091813768)

 Bond angles

  1- 2- 3  109.54054388   1- 2- 5  107.15157666   1- 2- 7  114.99619341   1- 4-16  112.15975412

  1- 4-18  109.96086858   1- 4-20  110.87686538   1- 8- 9  110.50699899   1- 8-11  112.15692769

  1- 8-13  111.21228658   2- 1- 4  109.54054388   2- 1- 6  107.15157666   2- 1- 8  114.99619341

  2- 3-15  112.15975412   2- 3-17  109.96086858   2- 3-19  110.87686538   2- 7-10  110.50699899

  2- 7-12  112.15692769   2- 7-14  111.21228658   3- 2- 5  107.33735912   3- 2- 7  110.47697507

  4-1-6  107.33735912   4-1-8  110.47697507   5-2-7  106.98503092   6-1-8  106.98503092

  9- 8-11  107.52829003   9- 8-13  107.80604445  10- 7-12  107.52829003  10- 7-14  107.80604445

 11- 8-13  107.43645239  12- 7-14  107.43645239  15- 3-17  107.84919901  15- 3-19  108.16741034

 16- 4-18  107.84919901  16- 4-20  108.16741034  17- 3-19  107.67015472  18- 4-20  107.67015472

 NUCLEAR CHARGE:                   50
 NUMBER OF PRIMITIVE AOS:         260
 NUMBER OF SYMMETRY AOS:          254
 NUMBER OF CONTRACTIONS:          154   (   77A   +   77B   )
 NUMBER OF INNER CORE ORBITALS:     0   (    0A   +    0B   )
 NUMBER OF OUTER CORE ORBITALS:     6   (    3A   +    3B   )
 NUMBER OF VALENCE ORBITALS:       38   (   19A   +   19B   )


 NUCLEAR REPULSION ENERGY  263.96192097

 Eigenvalues of metric

         1 0.334E-02 0.530E-02 0.120E-01 0.163E-01 0.207E-01 0.234E-01 0.307E-01 0.322E-01
         2 0.174E-02 0.419E-02 0.717E-02 0.140E-01 0.173E-01 0.230E-01 0.251E-01 0.266E-01


 Contracted 2-electron integrals neglected if value below      1.0D-11
 AO integral compression algorithm  1   Integral accuracy      1.0D-11

     168.559 MB (compressed) written to integral file ( 51.7%)


 NUMBER OF SORTED TWO-ELECTRON INTEGRALS:   36075039.     BUFFER LENGTH:  32768
 NUMBER OF SEGMENTS:   3  SEGMENT LENGTH:   15999984      RECORD LENGTH: 524288

 Memory used in sort:      16.56 MW

 SORT1 READ    40825256. AND WROTE    35709702. INTEGRALS IN    104 RECORDS. CPU TIME:     0.30 SEC, REAL TIME:     0.39 SEC
 SORT2 READ    35709702. AND WROTE    36075039. INTEGRALS IN    643 RECORDS. CPU TIME:     0.27 SEC, REAL TIME:     0.33 SEC

 FILE SIZES:   FILE 1:   199.5 MBYTE,  FILE 4:   436.3 MBYTE,   TOTAL:    635.8 MBYTE

 OPERATOR DM      FOR CENTER  0  COORDINATES:    0.000000    0.000000    0.000000


 **********************************************************************************************************************************
 DATASETS  * FILE   NREC   LENGTH (MB)   RECORD NAMES
              1      19      175.26       500      610      700      900      950      970     1000      129      960     1100   
                                          VAR    BASINP    GEOM    SYMINP    ZMAT    AOBASIS   BASIS     P2S    ABASIS      S 
                                         1400     1410     1200     1210     1080     1600     1650     1300     1700   
                                           T        V       H0       H01     AOSYM     SMH    MOLCAS    ERIS     OPER   

 PROGRAMS   *        TOTAL       INT
 CPU TIMES  *         3.52      3.44
 REAL TIME  *         4.25 SEC
 DISK USED  *       606.98 MB
 **********************************************************************************************************************************


 Program * Restricted Hartree-Fock

 Orbital guess generated from atomic densities. Full valence occupancy:   22  22

 Initial occupancy:  13  12

 NELEC=   50   SYM=1   MS2= 0   THRE=1.0D-08   THRD=3.2D-06   THRG=3.2D-06  HFMA2=F  DIIS_START=2   DIIS_MAX=10   DIIS_INCORE=F

 Level shifts:    0.00 (CLOSED)    0.00 (OPEN)    0.30 (GAP_MIN)

 ITER           ETOT              DE          GRAD        DDIFF     DIIS  NEXP   TIME(IT)  TIME(TOT)  DIAG
   1     -235.28345182    -235.28345182     0.00D+00     0.12D+00     0     0       0.08      0.16    start
   2     -235.36242349      -0.07897167     0.58D-02     0.12D-01     1     0       0.09      0.25    diag
   3     -235.37151202      -0.00908853     0.22D-02     0.45D-02     2     0       0.08      0.33    diag
   4     -235.37288948      -0.00137747     0.71D-03     0.15D-02     3     0       0.09      0.42    diag
   5     -235.37292276      -0.00003328     0.12D-03     0.25D-03     4     0       0.09      0.51    diag
   6     -235.37292576      -0.00000300     0.34D-04     0.97D-04     5     0       0.08      0.59    diag
   7     -235.37292582      -0.00000007     0.41D-05     0.13D-04     6     0       0.09      0.68    diag
   8     -235.37292583      -0.00000000     0.10D-05     0.32D-05     7     0       0.08      0.76    fixocc
   9     -235.37292583      -0.00000000     0.28D-06     0.86D-06     8     0       0.09      0.85    diag
  10     -235.37292583      -0.00000000     0.90D-07     0.21D-06     0     0       0.09      0.94    diag/orth

 Final occupancy:  13  12

 !RHF STATE 1.1 Energy               -235.372925829625
  RHF One-electron energy            -839.313336477221
  RHF Two-electron energy             339.978489677284
  RHF Kinetic energy                  235.312436603109
  RHF Nuclear energy                  263.961920970312
  RHF Virial quotient                  -1.000257059199

 !RHF STATE 1.1 Dipole moment           0.00000000     0.00000000     0.00391343
 Dipole moment /Debye                   0.00000000     0.00000000     0.00994696

 Orbital energies:

           1.1          2.1          3.1          4.1          5.1          6.1          7.1          8.1          9.1         10.1
    -11.219899   -11.212221   -11.210955    -1.105604    -0.939529    -0.827297    -0.623407    -0.604732    -0.558864    -0.532070

          11.1         12.1         13.1         14.1         15.1
     -0.488560    -0.439721    -0.434441     0.178224     0.215034

           1.2          2.2          3.2          4.2          5.2          6.2          7.2          8.2          9.2         10.2
    -11.219354   -11.212219   -11.210965    -1.015213    -0.917720    -0.746771    -0.624721    -0.550245    -0.536049    -0.518210

          11.2         12.2         13.2         14.2
     -0.483199    -0.446212     0.209674     0.215113


 HOMO     13.1    -0.434441 =     -11.8217eV
 LUMO     14.1     0.178224 =       4.8497eV
 LUMO-HOMO         0.612665 =      16.6715eV

 Orbitals saved in record  2100.2


 **********************************************************************************************************************************
 DATASETS  * FILE   NREC   LENGTH (MB)   RECORD NAMES
              1      19      175.26       500      610      700      900      950      970     1000      129      960     1100   
                                          VAR    BASINP    GEOM    SYMINP    ZMAT    AOBASIS   BASIS     P2S    ABASIS      S 
                                         1400     1410     1200     1210     1080     1600     1650     1300     1700   
                                           T        V       H0       H01     AOSYM     SMH    MOLCAS    ERIS     OPER   

              2       4        0.89       700     1000      520     2100   
                                         GEOM     BASIS   MCVARS     RHF  

 PROGRAMS   *        TOTAL    HF-SCF       INT
 CPU TIMES  *         4.46      0.94      3.44
 REAL TIME  *         5.34 SEC
 DISK USED  *       606.98 MB
 **********************************************************************************************************************************


 PROGRAM * CCSD (Closed-shell coupled cluster)     Authors: C. Hampel, H.-J. Werner, 1991, M. Deegan, P.J. Knowles, 1992


 CORETYPE=SMALL

 Convergence thresholds:  THRVAR = 1.00D-08  THRDEN = 1.00D-06

 Number of closed-shell orbitals:  25 (  13  12 )
 Number of external orbitals:     129 (  64  65 )

 Molecular orbitals read from record     2100.2  Type=RHF/CANONICAL  

 Number of N-1 electron functions:              25
 Number of N-2 electron functions:             325
 Number of singly external CSFs:              1612
 Number of doubly external CSFs:           2601769
 Total number of CSFs:                     2603382

 Length of J-op  integral file:               0.00 MB
 Length of K-op  integral file:               0.88 MB
 Length of 3-ext integral record:             0.00 MB

 Integral transformation finished. Total CPU:   1.74 sec, npass=  1  Memory used:  22.13 MW

 Reference energy:                   -235.37292583

 MP2 singlet pair energy:              -0.58917966
 MP2 triplet pair energy:              -0.30831482
 MP2 correlation energy:               -0.89749448
 MP2 total energy:                   -236.27042031

 SCS-MP2 correlation energy:           -0.89885592   (PS=  1.200000  PT=  0.333333)
 SCS-MP2 total energy:               -236.27178175

 ITER.      SQ.NORM     CORR.ENERGY   TOTAL ENERGY   ENERGY CHANGE        DEN1      VAR(S)    VAR(P)  DIIS     TIME  TIME/IT
   1      1.34188212    -0.97633903  -236.34926486    -0.07884455    -0.05382376  0.21D-02  0.55D-02  1  1    10.94     4.72
   2      1.36873144    -0.98206286  -236.35498869    -0.00572384    -0.02727098  0.51D-04  0.38D-03  2  2    15.40     4.63
   3      1.37367180    -0.98221594  -236.35514177    -0.00015307    -0.00308615  0.71D-05  0.25D-04  3  3    20.92     4.99
   4      1.37490146    -0.98228599  -236.35521182    -0.00007005    -0.00054981  0.36D-06  0.14D-05  4  4    26.05     5.07
   5      1.37505327    -0.98229323  -236.35521906    -0.00000724    -0.00005610  0.23D-07  0.11D-06  5  5    30.20     4.90
   6      1.37506960    -0.98229033  -236.35521616     0.00000290    -0.00001056  0.11D-08  0.72D-08  6  6    34.61     4.85
   7      1.37506764    -0.98229074  -236.35521656    -0.00000040     0.00000125  0.27D-09  0.61D-09  6  2    39.30     4.86
   8      1.37506818    -0.98229073  -236.35521656     0.00000001    -0.00000062  0.17D-10  0.43D-10  6  1    43.87     4.86

 Norm of t1 vector:      0.06046489      S-energy:     0.00000003      T1 diagnostic:  0.00604649
                                                                       D1 diagnostic:  0.01341856
                                                                       D2 diagnostic:  0.14366419 (internal)


 RESULTS
 =======

  Reference energy                   -235.372925829624

  Correlated core orbitals:             1.1       2.1       3.1       1.2       2.2       3.2
  Orbital energies:                   -11.2199  -11.2122  -11.2110  -11.2194  -11.2122  -11.2110

  CCSD core-core energy                -0.004479627386
  CCSD core-valence energy             -0.012081990416
  CCSD valence correlation energy      -0.965729110424

  CCSD singlet pair energy             -0.693331436080
  CCSD triplet pair energy             -0.288959317510
  CCSD correlation energy              -0.982290728226

 !CCSD total energy                  -236.355216557851

 Timing summary (sec):

 STEP                 CPU(USER)    SYS     CPU(TOT)    WALL
 Transformation          1.78      0.11      1.89      1.89
 CCSD iterations        42.23      1.27     43.50     39.02

 Program statistics:

 Available memory in ccsd:              3145725487
 Min. memory needed in ccsd:               6471721
 Max. memory used in ccsd:                 8881052
 Max. memory used in cckext:               8287190 ( 8 integral passes)



 **********************************************************************************************************************************
 DATASETS  * FILE   NREC   LENGTH (MB)   RECORD NAMES
              1      20      322.80       500      610      700      900      950      970     1000      129      960     1100   
                                          VAR    BASINP    GEOM    SYMINP    ZMAT    AOBASIS   BASIS     P2S    ABASIS      S 
                                         1400     1410     1200     1210     1080     1600     1650     1300     1700     1380   
                                           T        V       H0       H01     AOSYM     SMH    MOLCAS    ERIS     OPER     JKOP   

              2       4        0.89       700     1000      520     2100   
                                         GEOM     BASIS   MCVARS     RHF  

 PROGRAMS   *        TOTAL      CCSD    HF-SCF       INT
 CPU TIMES  *        43.95     39.48      0.94      3.44
 REAL TIME  *        46.32 SEC
 DISK USED  *       739.09 MB
 **********************************************************************************************************************************

 Dump information in style XML to xml output                                                                      

 Orbitals will not be exported.

 **********************************************************************************************************************************

 CCSD/cc-pVDZ energy=   -236.355216557851

            CCSD          HF-SCF
   -236.35521656   -235.37292583
 **********************************************************************************************************************************
 Molpro calculation terminated
