
 Working directory              : /var/folders/2v/xbgp75_9785319ghcgb4zr4r0000gr/T//molpro.rltGW6X9VB/
 Global scratch directory       : /var/folders/2v/xbgp75_9785319ghcgb4zr4r0000gr/T//molpro.rltGW6X9VB/
 Wavefunction directory         : /Users/peterk/wfu/
 Main file repository           : /var/folders/2v/xbgp75_9785319ghcgb4zr4r0000gr/T//molpro.rltGW6X9VB/

 id        : peterk

 Nodes        nprocs
 pjk2022.local    1
 GA implementation: MPI file
 GA implementation (serial work in mppx): MPI file

 Using customized tuning parameters: mindgm=1; mindgv=20; mindgc=4; mindgr=1; noblas=0; minvec=7
 default implementation of scratch files=df  


 Variables initialized (1037), CPU time= 0.00 sec
 
 
 
 geometry={
 5
  N    -0.3896245   -0.4975700    0.0000000
  O    -0.3776717    0.9154097    0.0000000
  H     0.1141459   -0.8133419    0.8207146
  H     0.1141459   -0.8133419   -0.8207146
  H     0.5390043    1.2088440    0.0000000
 }
 basis=cc-pVTZ
 core,small
 
 
 hf; ccsd(t)
 
 
 
 {put,xml;noorbitals,nobasis}
 Commands initialized (841), CPU time= 0.01 sec, 716 directives.
 Default parameters read. Elapsed time= 0.06 sec

 Checking input...
 Passed
1


                                         ***  PROGRAM SYSTEM MOLPRO  ***
                                       Copyright, TTI GmbH Stuttgart, 2015
                                    Version 2023.1 linked Sat Jul 22 07:59:25 2023


 **********************************************************************************************************************************
 LABEL *                                                                                                                                                                 
  64 bit serial version                                                                  DATE: 02-Aug-23          TIME: 16:57:26  
 **********************************************************************************************************************************

 SHA1:             401d111a1dbfa49388eacdf0424f85138b2d30d0
 **********************************************************************************************************************************

 Memory per process:      3146 MW
 Total memory per node:   4194 MW
 Total GA space:          1049 MW

 GA preallocation disabled
 GA check enabled

 Geometry recognized as XYZ


 Variable memory set to 3145.7 MW

 SETTING BASIS          =    CC-PVTZ


 Recomputing integrals since basis changed


 Using spherical harmonics

 Library entry N      S cc-pVTZ              selected for orbital group  1
 Library entry N      P cc-pVTZ              selected for orbital group  1
 Library entry N      D cc-pVTZ              selected for orbital group  1
 Library entry N      F cc-pVTZ              selected for orbital group  1
 Library entry O      S cc-pVTZ              selected for orbital group  2
 Library entry O      P cc-pVTZ              selected for orbital group  2
 Library entry O      D cc-pVTZ              selected for orbital group  2
 Library entry O      F cc-pVTZ              selected for orbital group  2
 Library entry H      S cc-pVTZ              selected for orbital group  3
 Library entry H      P cc-pVTZ              selected for orbital group  3
 Library entry H      D cc-pVTZ              selected for orbital group  3


 PROGRAM * SEWARD (Integral evaluation for generally contracted gaussian basis sets)     Author: Roland Lindh, 1990

 Geometry written to block  1 of record 700


 Point group  Cs  



 ATOMIC COORDINATES

 NR  ATOM    CHARGE       X              Y              Z

   1  N       7.00   -0.736283596   -0.940271028    0.000000000
   2  O       8.00   -0.713696078    1.729873625    0.000000000
   3  H       1.00    0.215704489   -1.536993437    1.550925820
   4  H       1.00    0.215704489   -1.536993437   -1.550925820
   5  H       1.00    1.018570507    2.284384087    0.000000000

 Bond lengths in Bohr (Angstrom)

 1-2  2.670240188  1-3  1.915131810  1-4  1.915131810  2-5  1.818853863
     ( 1.413030255)     ( 1.013444110)     ( 1.013444110)     ( 0.962496014)

 Bond angles

  1-2-5  108.23489657   2-1-3  107.90062162   2-1-4  107.90062162   3-1-4  108.15810256

 NUCLEAR CHARGE:                   18
 NUMBER OF PRIMITIVE AOS:         145
 NUMBER OF SYMMETRY AOS:          132
 NUMBER OF CONTRACTIONS:          102   (   64A'  +   38A"  )
 NUMBER OF INNER CORE ORBITALS:     0   (    0A'  +    0A"  )
 NUMBER OF OUTER CORE ORBITALS:     2   (    2A'  +    0A"  )
 NUMBER OF VALENCE ORBITALS:       11   (    8A'  +    3A"  )


 NUCLEAR REPULSION ENERGY   39.67072628

 Eigenvalues of metric

         1 0.146E-02 0.281E-02 0.340E-02 0.551E-02 0.859E-02 0.103E-01 0.125E-01 0.319E-01
         2 0.367E-02 0.855E-02 0.377E-01 0.412E-01 0.532E-01 0.721E-01 0.852E-01 0.115E+00


 Contracted 2-electron integrals neglected if value below      1.0D-11
 AO integral compression algorithm  1   Integral accuracy      1.0D-11

     37.487 MB (compressed) written to integral file ( 54.5%)


 NUMBER OF SORTED TWO-ELECTRON INTEGRALS:    7062991.     BUFFER LENGTH:  32768
 NUMBER OF SEGMENTS:   1  SEGMENT LENGTH:    7062991      RECORD LENGTH: 524288

 Memory used in sort:       7.62 MW

 SORT1 READ     8636277. AND WROTE     6935847. INTEGRALS IN     20 RECORDS. CPU TIME:     0.06 SEC, REAL TIME:     0.08 SEC
 SORT2 READ     6935847. AND WROTE     7062991. INTEGRALS IN    143 RECORDS. CPU TIME:     0.08 SEC, REAL TIME:     0.11 SEC

 FILE SIZES:   FILE 1:    67.8 MBYTE,  FILE 4:    84.0 MBYTE,   TOTAL:    151.8 MBYTE

 OPERATOR DM      FOR CENTER  0  COORDINATES:    0.000000    0.000000    0.000000


 **********************************************************************************************************************************
 DATASETS  * FILE   NREC   LENGTH (MB)   RECORD NAMES
              1      19       58.44       500      610      700      900      950      970     1000      129      960     1100   
                                          VAR    BASINP    GEOM    SYMINP    ZMAT    AOBASIS   BASIS     P2S    ABASIS      S 
                                         1400     1410     1200     1210     1080     1600     1650     1300     1700   
                                           T        V       H0       H01     AOSYM     SMH    MOLCAS    ERIS     OPER   

 PROGRAMS   *        TOTAL       INT
 CPU TIMES  *         0.78      0.68
 REAL TIME  *         1.55 SEC
 DISK USED  *       145.15 MB
 **********************************************************************************************************************************


 Program * Restricted Hartree-Fock

 Orbital guess generated from atomic densities. Full valence occupancy:   10   3

 Initial occupancy:   7   2

 NELEC=   18   SYM=1   MS2= 0   THRE=1.0D-08   THRD=3.2D-06   THRG=3.2D-06  HFMA2=F  DIIS_START=2   DIIS_MAX=10   DIIS_INCORE=F

 Level shifts:    0.00 (CLOSED)    0.00 (OPEN)    0.30 (GAP_MIN)

 ITER           ETOT              DE          GRAD        DDIFF     DIIS  NEXP   TIME(IT)  TIME(TOT)  DIAG
   1     -131.00000880    -131.00000880     0.00D+00     0.11D+00     0     0       0.02      0.04    start
   2     -131.03107267      -0.03106388     0.94D-02     0.12D-01     1     0       0.02      0.06    diag
   3     -131.03542372      -0.00435105     0.39D-02     0.34D-02     2     0       0.02      0.08    diag
   4     -131.03587800      -0.00045428     0.11D-02     0.11D-02     3     0       0.03      0.11    diag
   5     -131.03591786      -0.00003986     0.26D-03     0.31D-03     4     0       0.02      0.13    diag
   6     -131.03592051      -0.00000266     0.55D-04     0.87D-04     5     0       0.02      0.15    diag
   7     -131.03592090      -0.00000038     0.22D-04     0.30D-04     6     0       0.02      0.17    diag
   8     -131.03592094      -0.00000005     0.57D-05     0.13D-04     7     0       0.02      0.19    fixocc
   9     -131.03592094      -0.00000000     0.11D-05     0.28D-05     8     0       0.02      0.21    diag
  10     -131.03592094      -0.00000000     0.24D-06     0.40D-06     0     0       0.03      0.24    diag/orth

 Final occupancy:   7   2

 !RHF STATE 1.1 Energy               -131.035920944012
  RHF One-electron energy            -258.291896035911
  RHF Two-electron energy              87.585248807145
  RHF Kinetic energy                  130.884556441697
  RHF Nuclear energy                   39.670726284755
  RHF Virial quotient                  -1.001156473357

 !RHF STATE 1.1 Dipole moment           1.22773489    -0.28076606     0.00000000
 Dipole moment /Debye                   3.12059083    -0.71363614     0.00000000

 Orbital energies:

           1.1          2.1          3.1          4.1          5.1          6.1          7.1          8.1          9.1
    -20.584522   -15.601292    -1.401523    -1.075847    -0.716478    -0.576457    -0.426854     0.130843     0.171887

           1.2          2.2          3.2          4.2
     -0.694968    -0.482760     0.200407     0.525993


 HOMO      7.1    -0.426854 =     -11.6153eV
 LUMO      8.1     0.130843 =       3.5604eV
 LUMO-HOMO         0.557697 =      15.1757eV

 Orbitals saved in record  2100.2


 **********************************************************************************************************************************
 DATASETS  * FILE   NREC   LENGTH (MB)   RECORD NAMES
              1      19       58.44       500      610      700      900      950      970     1000      129      960     1100   
                                          VAR    BASINP    GEOM    SYMINP    ZMAT    AOBASIS   BASIS     P2S    ABASIS      S 
                                         1400     1410     1200     1210     1080     1600     1650     1300     1700   
                                           T        V       H0       H01     AOSYM     SMH    MOLCAS    ERIS     OPER   

              2       4        0.54       700     1000      520     2100   
                                         GEOM     BASIS   MCVARS     RHF  

 PROGRAMS   *        TOTAL    HF-SCF       INT
 CPU TIMES  *         1.02      0.23      0.68
 REAL TIME  *         1.84 SEC
 DISK USED  *       145.15 MB
 **********************************************************************************************************************************


 PROGRAM * CCSD (Closed-shell coupled cluster)     Authors: C. Hampel, H.-J. Werner, 1991, M. Deegan, P.J. Knowles, 1992


 CORETYPE=SMALL

 Convergence thresholds:  THRVAR = 1.00D-08  THRDEN = 1.00D-06

 CCSD(T)     terms to be evaluated (factor= 1.000)


 Number of closed-shell orbitals:   9 (   7   2 )
 Number of external orbitals:      93 (  57  36 )

 Molecular orbitals read from record     2100.2  Type=RHF/CANONICAL  

 Number of N-1 electron functions:               9
 Number of N-2 electron functions:              45
 Number of singly external CSFs:               471
 Number of doubly external CSFs:            178317
 Total number of CSFs:                      178789

 Length of J-op  integral file:               0.00 MB
 Length of K-op  integral file:               0.44 MB
 Length of 3-ext integral record:             0.00 MB

 Memory could be reduced to 5.19 Mwords without degradation in triples

 Integral transformation finished. Total CPU:   0.11 sec, npass=  1  Memory used:   1.89 MW

 Reference energy:                   -131.03592094

 MP2 singlet pair energy:              -0.31548270
 MP2 triplet pair energy:              -0.17715462
 MP2 correlation energy:               -0.49263732
 MP2 total energy:                   -131.52855826

 SCS-MP2 correlation energy:           -0.48880878   (PS=  1.200000  PT=  0.333333)
 SCS-MP2 total energy:               -131.52472973

 ITER.      SQ.NORM     CORR.ENERGY   TOTAL ENERGY   ENERGY CHANGE        DEN1      VAR(S)    VAR(P)  DIIS     TIME  TIME/IT
   1      1.11998594    -0.50446884  -131.54038978    -0.01183152    -0.00080168  0.12D-02  0.19D-02  1  1     1.46     0.22
   2      1.12742252    -0.50539679  -131.54131773    -0.00092795    -0.00974134  0.24D-04  0.23D-03  2  2     1.63     0.21
   3      1.13004290    -0.50549178  -131.54141272    -0.00009499    -0.00181921  0.89D-05  0.13D-04  3  3     1.83     0.21
   4      1.13085130    -0.50550551  -131.54142646    -0.00001374    -0.00044369  0.11D-05  0.99D-06  4  4     2.00     0.21
   5      1.13100406    -0.50550867  -131.54142961    -0.00000315    -0.00005437  0.40D-06  0.97D-07  5  5     2.21     0.21
   6      1.13105145    -0.50550679  -131.54142774     0.00000187    -0.00000826  0.85D-07  0.15D-07  6  6     2.38     0.21
   7      1.13106626    -0.50550701  -131.54142795    -0.00000021    -0.00000085  0.11D-07  0.35D-08  6  2     2.59     0.21
   8      1.13107228    -0.50550665  -131.54142760     0.00000035    -0.00000017  0.14D-08  0.48D-09  6  1     2.83     0.22

 Norm of t1 vector:      0.04473174      S-energy:    -0.00000026      T1 diagnostic:  0.00745529
                                                                       D1 diagnostic:  0.01814765
                                                                       D2 diagnostic:  0.14963090 (internal)


 Total CPU time for triples:      1.95 sec


 RESULTS
 =======

  Reference energy                   -131.035920944012

  Correlated core orbitals:             1.1       2.1
  Orbital energies:                   -20.5845  -15.6013

  CCSD core-core energy                -0.014252870861
  CCSD core-valence energy             -0.014014172048
  CCSD valence correlation energy      -0.477239609827

  CCSD singlet pair energy             -0.346874769891
  CCSD triplet pair energy             -0.158631620195
  CCSD correlation energy              -0.505506652736

  Triples (T) contribution             -0.017130846371
  Total correlation energy             -0.522637499107

  CCSD total energy                  -131.541427596748
  CCSD[T] energy                     -131.559021743652
  CCSD-T energy                      -131.558277609519
 !CCSD(T) total energy               -131.558558443119

 Timing summary (sec):

 STEP                 CPU(USER)    SYS     CPU(TOT)    WALL
 Transformation          0.11      0.02      0.13      0.13
 CCSD iterations         2.73      0.13      2.86      1.82
 Triples                 1.95      0.10      2.05      2.15

 Program statistics:

 Available memory in ccsd:              3145727669
 Min. memory needed in ccsd:                532385
 Max. memory used in ccsd:                  682699
 Max. memory used in cckext:                703745 ( 8 integral passes)



 **********************************************************************************************************************************
 DATASETS  * FILE   NREC   LENGTH (MB)   RECORD NAMES
              1      20       75.35       500      610      700      900      950      970     1000      129      960     1100   
                                          VAR    BASINP    GEOM    SYMINP    ZMAT    AOBASIS   BASIS     P2S    ABASIS      S 
                                         1400     1410     1200     1210     1080     1600     1650     1300     1700     1380   
                                           T        V       H0       H01     AOSYM     SMH    MOLCAS    ERIS     OPER     JKOP   

              2       4        0.54       700     1000      520     2100   
                                         GEOM     BASIS   MCVARS     RHF  

 PROGRAMS   *        TOTAL   CCSD(T)    HF-SCF       INT
 CPU TIMES  *         4.69      3.67      0.23      0.68
 REAL TIME  *         5.97 SEC
 DISK USED  *       145.15 MB
 **********************************************************************************************************************************

 Dump information in style XML to xml output                                                                      

 Orbitals will not be exported.

 **********************************************************************************************************************************

 CCSD(T)/cc-pVTZ energy=   -131.558558443119

         CCSD(T)          HF-SCF
   -131.55855844   -131.03592094
 **********************************************************************************************************************************
 Molpro calculation terminated
