
 Working directory              : /var/folders/2v/xbgp75_9785319ghcgb4zr4r0000gr/T//molpro.vimj02Qg62/
 Global scratch directory       : /var/folders/2v/xbgp75_9785319ghcgb4zr4r0000gr/T//molpro.vimj02Qg62/
 Wavefunction directory         : /Users/peterk/wfu/
 Main file repository           : /var/folders/2v/xbgp75_9785319ghcgb4zr4r0000gr/T//molpro.vimj02Qg62/

 id        : peterk

 Nodes        nprocs
 pjk2022.local    1
 GA implementation: MPI file
 GA implementation (serial work in mppx): MPI file

 Using customized tuning parameters: mindgm=1; mindgv=20; mindgc=4; mindgr=1; noblas=0; minvec=7
 default implementation of scratch files=df  


 Variables initialized (1037), CPU time= 0.00 sec
 
 
 
 geometry={
 4
  O     0.7209435    0.0000000    0.4642736
  O    -0.7209435    0.0000000    0.4642736
  H     0.9743565    0.0000000   -0.4642670
  H    -0.9743565    0.0000000   -0.4642670
 }
 basis=cc-pVTZ
 core,small
 
 
 hf; papt;mp4
 
 
 
 {put,xml;noorbitals,nobasis}
 Commands initialized (841), CPU time= 0.01 sec, 716 directives.
 Default parameters read. Elapsed time= 0.06 sec

 Checking input...
 Passed
1


                                         ***  PROGRAM SYSTEM MOLPRO  ***
                                       Copyright, TTI GmbH Stuttgart, 2015
                                    Version 2023.1 linked Sat Jul 22 07:59:25 2023


 **********************************************************************************************************************************
 LABEL *                                                                                                                                                                 
  64 bit serial version                                                                  DATE: 02-Aug-23          TIME: 02:37:56  
 **********************************************************************************************************************************

 SHA1:             401d111a1dbfa49388eacdf0424f85138b2d30d0
 **********************************************************************************************************************************

 Memory per process:      3146 MW
 Total memory per node:   4194 MW
 Total GA space:          1049 MW

 GA preallocation disabled
 GA check enabled

 Geometry recognized as XYZ


 Variable memory set to 3145.7 MW

 SETTING BASIS          =    CC-PVTZ


 Recomputing integrals since basis changed


 Using spherical harmonics

 Library entry O      S cc-pVTZ              selected for orbital group  1
 Library entry O      P cc-pVTZ              selected for orbital group  1
 Library entry O      D cc-pVTZ              selected for orbital group  1
 Library entry O      F cc-pVTZ              selected for orbital group  1
 Library entry H      S cc-pVTZ              selected for orbital group  2
 Library entry H      P cc-pVTZ              selected for orbital group  2
 Library entry H      D cc-pVTZ              selected for orbital group  2


 PROGRAM * SEWARD (Integral evaluation for generally contracted gaussian basis sets)     Author: Roland Lindh, 1990

 Geometry written to block  1 of record 700


 Point group  C2v 



 ATOMIC COORDINATES

 NR  ATOM    CHARGE       X              Y              Z

   1  O       8.00    1.362385766    0.000000000    0.877349951
   2  O       8.00   -1.362385766    0.000000000    0.877349951
   3  H       1.00    1.841266933    0.000000000   -0.877337479
   4  H       1.00   -1.841266933    0.000000000   -0.877337479

 Bond lengths in Bohr (Angstrom)

 1-2  2.724771533  1-3  1.818860948  2-4  1.818860948
     ( 1.441887000)     ( 0.962499763)     ( 0.962499763)

 Bond angles

  1-2-4  105.26514921   2-1-3  105.26514921

 NUCLEAR CHARGE:                   18
 NUMBER OF PRIMITIVE AOS:         128
 NUMBER OF SYMMETRY AOS:          116
 NUMBER OF CONTRACTIONS:           88   (   30A1  +   30B1  +   14B2  +   14A2  )
 NUMBER OF INNER CORE ORBITALS:     0   (    0A1  +    0B1  +    0B2  +    0A2  )
 NUMBER OF OUTER CORE ORBITALS:     2   (    1A1  +    1B1  +    0B2  +    0A2  )
 NUMBER OF VALENCE ORBITALS:       10   (    4A1  +    4B1  +    1B2  +    1A2  )


 NUCLEAR REPULSION ENERGY   36.93677898

 Eigenvalues of metric

         1 0.419E-02 0.701E-02 0.112E-01 0.460E-01 0.542E-01 0.103E+00 0.125E+00 0.151E+00
         2 0.198E-02 0.481E-02 0.830E-02 0.180E-01 0.390E-01 0.444E-01 0.730E-01 0.782E-01
         3 0.452E-01 0.132E+00 0.286E+00 0.486E+00 0.501E+00 0.590E+00 0.778E+00 0.109E+01
         4 0.432E-01 0.963E-01 0.171E+00 0.300E+00 0.378E+00 0.524E+00 0.718E+00 0.860E+00


 Contracted 2-electron integrals neglected if value below      1.0D-11
 AO integral compression algorithm  1   Integral accuracy      1.0D-11

     12.321 MB (compressed) written to integral file ( 51.1%)


 NUMBER OF SORTED TWO-ELECTRON INTEGRALS:    2024670.     BUFFER LENGTH:  32768
 NUMBER OF SEGMENTS:   1  SEGMENT LENGTH:    2024670      RECORD LENGTH: 524288

 Memory used in sort:       2.58 MW

 SORT1 READ     3036152. AND WROTE     1794902. INTEGRALS IN      6 RECORDS. CPU TIME:     0.02 SEC, REAL TIME:     0.03 SEC
 SORT2 READ     1794902. AND WROTE     2024670. INTEGRALS IN     47 RECORDS. CPU TIME:     0.04 SEC, REAL TIME:     0.06 SEC

 FILE SIZES:   FILE 1:    42.5 MBYTE,  FILE 4:    25.2 MBYTE,   TOTAL:     67.8 MBYTE

 OPERATOR DM      FOR CENTER  0  COORDINATES:    0.000000    0.000000    0.000000


 **********************************************************************************************************************************
 DATASETS  * FILE   NREC   LENGTH (MB)   RECORD NAMES
              1      19       36.97       500      610      700      900      950      970     1000      129      960     1100   
                                          VAR    BASINP    GEOM    SYMINP    ZMAT    AOBASIS   BASIS     P2S    ABASIS      S 
                                         1400     1410     1200     1210     1080     1600     1650     1300     1700   
                                           T        V       H0       H01     AOSYM     SMH    MOLCAS    ERIS     OPER   

 PROGRAMS   *        TOTAL       INT
 CPU TIMES  *         0.51      0.42
 REAL TIME  *         1.02 SEC
 DISK USED  *        65.02 MB
 **********************************************************************************************************************************


 Program * Restricted Hartree-Fock

 Orbital guess generated from atomic densities. Full valence occupancy:    5   5   1   1

 Initial occupancy:   4   3   1   1

 NELEC=   18   SYM=1   MS2= 0   THRE=1.0D-08   THRD=3.2D-06   THRG=3.2D-06  HFMA2=F  DIIS_START=2   DIIS_MAX=10   DIIS_INCORE=F

 Level shifts:    0.00 (CLOSED)    0.00 (OPEN)    0.30 (GAP_MIN)

 ITER           ETOT              DE          GRAD        DDIFF     DIIS  NEXP   TIME(IT)  TIME(TOT)  DIAG
   1     -150.79075950    -150.79075950     0.00D+00     0.17D+00     0     0       0.00      0.00    start
   2     -150.82322915      -0.03246965     0.14D-01     0.17D-01     1     0       0.01      0.01    diag
   3     -150.82499094      -0.00176179     0.36D-02     0.28D-02     2     0       0.00      0.01    diag
   4     -150.82516718      -0.00017624     0.93D-03     0.12D-02     3     0       0.01      0.02    diag
   5     -150.82519189      -0.00002471     0.33D-03     0.37D-03     4     0       0.00      0.02    diag
   6     -150.82519357      -0.00000169     0.64D-04     0.10D-03     5     0       0.01      0.03    diag
   7     -150.82519362      -0.00000004     0.98D-05     0.19D-04     6     0       0.00      0.03    diag
   8     -150.82519362      -0.00000000     0.14D-05     0.27D-05     7     0       0.01      0.04    fixocc
   9     -150.82519362      -0.00000000     0.40D-06     0.53D-06     0     0       0.00      0.04    diag

 Final occupancy:   4   3   1   1

 !RHF STATE 1.1 Energy               -150.825193618016
  RHF One-electron energy            -281.572076272968
  RHF Two-electron energy              93.810103672057
  RHF Kinetic energy                  150.637651395470
  RHF Nuclear energy                   36.936778982895
  RHF Virial quotient                  -1.001244989024

 !RHF STATE 1.1 Dipole moment           0.00000000     0.00000000    -1.29841433
 Dipole moment /Debye                   0.00000000     0.00000000    -3.30024004

 Orbital energies:

           1.1          2.1          3.1          4.1          5.1          6.1
    -20.627163    -1.476220    -0.768021    -0.598977     0.122906     0.528932

           1.2          2.2          3.2          4.2          5.2
    -20.626883    -1.214107    -0.577898     0.159772     0.304303

           1.3          2.3          3.3
     -0.629307     0.742258     0.832538

           1.4          2.4          3.4
     -0.457361     0.837466     0.977401


 HOMO      1.4    -0.457361 =     -12.4454eV
 LUMO      5.1     0.122906 =       3.3444eV
 LUMO-HOMO         0.580267 =      15.7899eV

 Orbitals saved in record  2100.2


 **********************************************************************************************************************************
 DATASETS  * FILE   NREC   LENGTH (MB)   RECORD NAMES
              1      19       36.97       500      610      700      900      950      970     1000      129      960     1100   
                                          VAR    BASINP    GEOM    SYMINP    ZMAT    AOBASIS   BASIS     P2S    ABASIS      S 
                                         1400     1410     1200     1210     1080     1600     1650     1300     1700   
                                           T        V       H0       H01     AOSYM     SMH    MOLCAS    ERIS     OPER   

              2       4        0.47       700     1000      520     2100   
                                         GEOM     BASIS   MCVARS     RHF  

 PROGRAMS   *        TOTAL    HF-SCF       INT
 CPU TIMES  *         0.55      0.04      0.42
 REAL TIME  *         1.08 SEC
 DISK USED  *        65.02 MB
 **********************************************************************************************************************************


 PROGRAM * PAPT (Closed-shell)     Authors: C. Hampel, H.-J. Werner, 1991, P.J. Knowles, 2021


 CORETYPE=SMALL

 Convergence thresholds:  THRVAR = 1.00D-08  THRDEN = 1.00D-06

 Number of closed-shell orbitals:   9 (   4   3   1   1 )
 Number of external orbitals:      79 (  26  27  13  13 )

 Molecular orbitals read from record     2100.2  Type=RHF/CANONICAL  

 Number of N-1 electron functions:               9
 Number of N-2 electron functions:              45
 Number of singly external CSFs:               211
 Number of doubly external CSFs:             65824
 Total number of CSFs:                       66036

 Length of J-op  integral file:               0.00 MB
 Length of K-op  integral file:               0.21 MB

 Integral transformation finished. Total CPU:   0.01 sec, npass=  1  Memory used:   0.14 MW

 Reference energy:                   -150.82519362

                        CORR.ENERGY   TOTAL ENERGY   ENERGY CHANGE
 MP2:                   -0.52121102  -151.34640464    -0.52121102

 SCS-MP2 correlation energy:           -0.51392619   (PS=  1.200000  PT=  0.333333)
 SCS-MP2 total energy:               -151.33911981
 Iteration:   1     0.2711D+00
 Iteration:   2     0.1417D+02
 Iteration:   3     0.1082D+00
 Iteration:   4     0.1397D+01
 Iteration:   5     0.3012D-01
 Iteration:   6     0.5715D-01
 Iteration:   7     0.1166D-01
 Iteration:   8     0.1104D-01
 Iteration:   9     0.9818D-02
 Iteration:  10     0.2043D-02
 Iteration:  11     0.2254D-02
 Iteration:  12     0.8974D-03
 Iteration:  13     0.3713D-03
 Iteration:  14     0.1785D-02
 Iteration:  15     0.6331D-04
 PAPT operator written to  7000.1
 PAPT orbitals and eigenvalues written to  7000.2

 MP3(D):                -0.52463583  -151.34982945    -0.00342481



 RESULTS
 =======

  Reference energy                   -150.825193618016

  Correlated core orbitals:             1.1       1.2
  Orbital energies:                   -20.6272  -20.6269

  MP3 core-core energy                 -0.012191730775
  MP3 core-valence energy              -0.014255491269
  MP3 valence correlation energy       -0.498188608632

  MP3 singlet pair energy              -0.350094602626
  MP3 triplet pair energy              -0.174541228050
  MP3 correlation energy               -0.524635830676

 !MP3 total energy                   -151.349829448692

 Timing summary (sec):

 STEP                 CPU(USER)    SYS     CPU(TOT)    WALL
 Transformation          0.01      0.01      0.02      0.01
 CCSD iterations         0.76      0.01      0.77      0.13

 Program statistics:

 Available memory in ccsd:              3145727672
 Min. memory needed in ccsd:                201306
 Max. memory used in ccsd:                  256125
 Max. memory used in cckext:                255787 ( 1 integral passes)



 **********************************************************************************************************************************
 DATASETS  * FILE   NREC   LENGTH (MB)   RECORD NAMES
              1      21       38.07       500      610      700      900      950      970     1000      129      960     1100   
                                          VAR    BASINP    GEOM    SYMINP    ZMAT    AOBASIS   BASIS     P2S    ABASIS      S 
                                         1400     1410     1200     1210     1080     1600     1650     1300     1700     1380   
                                           T        V       H0       H01     AOSYM     SMH    MOLCAS    ERIS     OPER     JKOP   
                                         7000   
                                        PAPT AO    

              2       5        0.62       700     1000      520     2100     7000   
                                         GEOM     BASIS   MCVARS     RHF     PAPT   

 PROGRAMS   *        TOTAL      PAPT    HF-SCF       INT
 CPU TIMES  *         0.69      0.14      0.04      0.42
 REAL TIME  *         1.24 SEC
 DISK USED  *        65.02 MB
 **********************************************************************************************************************************


 PROGRAM * MP4 (Closed-shell)     Authors: C. Hampel, H.-J. Werner, 1991, M. Deegan, P.J. Knowles, 1992


 CORETYPE=SMALL

 Convergence thresholds:  THRVAR = 1.00D-08  THRDEN = 1.00D-06

 MP4(T)     terms to be evaluated (factor= 0.000)


 Number of closed-shell orbitals:   9 (   4   3   1   1 )
 Number of external orbitals:      79 (  26  27  13  13 )

 Molecular orbitals read from record     7000.2  Type=PAPT/CANONICAL (state 1.1)

 Number of N-1 electron functions:               9
 Number of N-2 electron functions:              45
 Number of singly external CSFs:               211
 Number of doubly external CSFs:             65824
 Total number of CSFs:                       66036

 Length of J-op  integral file:               0.00 MB
 Length of K-op  integral file:               0.21 MB

 Memory could be reduced to 1.61 Mwords without degradation in triples

 Integral transformation finished. Total CPU:   0.02 sec, npass=  1  Memory used:   0.45 MW
 Orbital energies read from record       7000.2  Type=PAPT/CANONICAL (state 1.1)

 Reference energy:                   -150.82519362

                        CORR.ENERGY   TOTAL ENERGY   ENERGY CHANGE
 MP2:                   -0.52823342  -151.35342704    -0.52823342

 SCS-MP2 correlation energy:           -0.52291613   (PS=  1.200000  PT=  0.333333)
 SCS-MP2 total energy:               -151.34810975

 MP3(D):                -0.52841904  -151.35361266    -0.00018562
 MP4(DQ):               -0.52449021  -151.34968382     0.00392884
 MP4(SDQ):              -0.52842775  -151.35362137    -0.00393754

 Norm of t1 vector:      0.04045678      S-energy:    -0.00393754      T1 diagnostic:  0.00674280

 Largest off-diagonal element in interal  block of Fock matrix:  0.17D+00
 Largest off-diagonal element in external block of Fock matrix:  0.48D+00


 Total CPU time for triples:      0.33 sec


 RESULTS
 =======

  Reference energy                   -150.825193618016

  Correlated core orbitals:             1.1       1.2
  Orbital energies:                   -20.0800  -20.1143

  MP4(SDQ) core-core energy            -0.012278700826
  MP4(SDQ) core-valence energy         -0.014230213483
  MP4(SDQ) valence correlation ener    -0.501918835916

  MP4(SDQ) singlet pair energy         -0.348888542041
  MP4(SDQ) triplet pair energy         -0.175601663834
  MP4(SDQ) correlation energy          -0.528427750225

  Triples contribution                 -0.020071870593
  Total correlation energy             -0.548499620818

  MP4(SDQ) total energy              -151.353621368241
 !MP4(SDTQ) total energy             -151.373693238834

 Timing summary (sec):

 STEP                 CPU(USER)    SYS     CPU(TOT)    WALL
 Transformation          0.03      0.01      0.04      0.04
 CCSD iterations         0.87      0.00      0.87      0.08
 Triples                 0.33      0.02      0.35      0.35

 Program statistics:

 Available memory in ccsd:              3145727672
 Min. memory needed in ccsd:                201306
 Max. memory used in ccsd:                  256125
 Max. memory used in cckext:                255787 ( 1 integral passes)



 **********************************************************************************************************************************
 DATASETS  * FILE   NREC   LENGTH (MB)   RECORD NAMES
              1      22       42.46       500      610      700      900      950      970     1000      129      960     1100   
                                          VAR    BASINP    GEOM    SYMINP    ZMAT    AOBASIS   BASIS     P2S    ABASIS      S 
                                         1400     1410     1200     1210     1080     1600     1650     1300     1700     1380   
                                           T        V       H0       H01     AOSYM     SMH    MOLCAS    ERIS     OPER     JKOP   
                                         7000     1380(1)
                                        PAPT AO   JKOP   

              2       5        0.62       700     1000      520     2100     7000   
                                         GEOM     BASIS   MCVARS     RHF     PAPT   

 PROGRAMS   *        TOTAL       MP4      PAPT    HF-SCF       INT
 CPU TIMES  *         1.15      0.46      0.14      0.04      0.42
 REAL TIME  *         1.73 SEC
 DISK USED  *        65.02 MB
 **********************************************************************************************************************************

 Dump information in style XML to xml output                                                                      

 Orbitals will not be exported.

 **********************************************************************************************************************************

 MP4/cc-pVTZ energy=   -151.373693238834

             MP4            PAPT          HF-SCF
   -151.37369324   -151.34982945   -150.82519362
 **********************************************************************************************************************************
 Molpro calculation terminated
