
 Working directory              : /var/folders/2v/xbgp75_9785319ghcgb4zr4r0000gr/T//molpro.28vkPb0neA/
 Global scratch directory       : /var/folders/2v/xbgp75_9785319ghcgb4zr4r0000gr/T//molpro.28vkPb0neA/
 Wavefunction directory         : /Users/peterk/wfu/
 Main file repository           : /var/folders/2v/xbgp75_9785319ghcgb4zr4r0000gr/T//molpro.28vkPb0neA/

 id        : peterk

 Nodes        nprocs
 pjk2022.local    1
 GA implementation: MPI file
 GA implementation (serial work in mppx): MPI file

 Using customized tuning parameters: mindgm=1; mindgv=20; mindgc=4; mindgr=1; noblas=0; minvec=7
 default implementation of scratch files=df  


 Variables initialized (1037), CPU time= 0.00 sec
 
 
 
 geometry={
 4
  O     0.7209435    0.0000000    0.4642736
  O    -0.7209435    0.0000000    0.4642736
  H     0.9743565    0.0000000   -0.4642670
  H    -0.9743565    0.0000000   -0.4642670
 }
 basis=cc-pVDZ
 core,small
 
 
 hf; ccsd(t)
 
 
 
 {put,xml;noorbitals,nobasis}
 Commands initialized (841), CPU time= 0.01 sec, 716 directives.
 Default parameters read. Elapsed time= 0.06 sec

 Checking input...
 Passed
1


                                         ***  PROGRAM SYSTEM MOLPRO  ***
                                       Copyright, TTI GmbH Stuttgart, 2015
                                    Version 2023.1 linked Sat Jul 22 07:59:25 2023


 **********************************************************************************************************************************
 LABEL *                                                                                                                                                                 
  64 bit serial version                                                                  DATE: 02-Aug-23          TIME: 11:12:47  
 **********************************************************************************************************************************

 SHA1:             401d111a1dbfa49388eacdf0424f85138b2d30d0
 **********************************************************************************************************************************

 Memory per process:      3146 MW
 Total memory per node:   4194 MW
 Total GA space:          1049 MW

 GA preallocation disabled
 GA check enabled

 Geometry recognized as XYZ


 Variable memory set to 3145.7 MW

 SETTING BASIS          =    CC-PVDZ


 Recomputing integrals since basis changed


 Using spherical harmonics

 Library entry O      S cc-pVDZ              selected for orbital group  1
 Library entry O      P cc-pVDZ              selected for orbital group  1
 Library entry O      D cc-pVDZ              selected for orbital group  1
 Library entry H      S cc-pVDZ              selected for orbital group  2
 Library entry H      P cc-pVDZ              selected for orbital group  2


 PROGRAM * SEWARD (Integral evaluation for generally contracted gaussian basis sets)     Author: Roland Lindh, 1990

 Geometry written to block  1 of record 700


 Point group  C2v 



 ATOMIC COORDINATES

 NR  ATOM    CHARGE       X              Y              Z

   1  O       8.00    1.362385766    0.000000000    0.877349951
   2  O       8.00   -1.362385766    0.000000000    0.877349951
   3  H       1.00    1.841266933    0.000000000   -0.877337479
   4  H       1.00   -1.841266933    0.000000000   -0.877337479

 Bond lengths in Bohr (Angstrom)

 1-2  2.724771533  1-3  1.818860948  2-4  1.818860948
     ( 1.441887000)     ( 0.962499763)     ( 0.962499763)

 Bond angles

  1-2-4  105.26514921   2-1-3  105.26514921

 NUCLEAR CHARGE:                   18
 NUMBER OF PRIMITIVE AOS:          68
 NUMBER OF SYMMETRY AOS:           66
 NUMBER OF CONTRACTIONS:           38   (   14A1  +   14B1  +    5B2  +    5A2  )
 NUMBER OF INNER CORE ORBITALS:     0   (    0A1  +    0B1  +    0B2  +    0A2  )
 NUMBER OF OUTER CORE ORBITALS:     2   (    1A1  +    1B1  +    0B2  +    0A2  )
 NUMBER OF VALENCE ORBITALS:       10   (    4A1  +    4B1  +    1B2  +    1A2  )


 NUCLEAR REPULSION ENERGY   36.93677898

 Eigenvalues of metric

         1 0.268E-01 0.518E-01 0.156E+00 0.174E+00 0.220E+00 0.595E+00 0.991E+00 0.103E+01
         2 0.118E-01 0.406E-01 0.741E-01 0.144E+00 0.169E+00 0.429E+00 0.580E+00 0.875E+00
         3 0.205E+00 0.584E+00 0.107E+01 0.125E+01 0.251E+01
         4 0.154E+00 0.555E+00 0.869E+00 0.110E+01 0.171E+01


 Contracted 2-electron integrals neglected if value below      1.0D-11
 AO integral compression algorithm  1   Integral accuracy      1.0D-11

     0.786 MB (compressed) written to integral file ( 57.0%)


 NUMBER OF SORTED TWO-ELECTRON INTEGRALS:      78720.     BUFFER LENGTH:  32768
 NUMBER OF SEGMENTS:   1  SEGMENT LENGTH:      78720      RECORD LENGTH: 524288

 Memory used in sort:       0.64 MW

 SORT1 READ      129016. AND WROTE       67326. INTEGRALS IN      1 RECORDS. CPU TIME:     0.00 SEC, REAL TIME:     0.00 SEC
 SORT2 READ       67326. AND WROTE       78720. INTEGRALS IN      3 RECORDS. CPU TIME:     0.00 SEC, REAL TIME:     0.01 SEC

 FILE SIZES:   FILE 1:    30.9 MBYTE,  FILE 4:     4.3 MBYTE,   TOTAL:     35.1 MBYTE

 OPERATOR DM      FOR CENTER  0  COORDINATES:    0.000000    0.000000    0.000000


 **********************************************************************************************************************************
 DATASETS  * FILE   NREC   LENGTH (MB)   RECORD NAMES
              1      19       29.02       500      610      700      900      950      970     1000      129      960     1100   
                                          VAR    BASINP    GEOM    SYMINP    ZMAT    AOBASIS   BASIS     P2S    ABASIS      S 
                                         1400     1410     1200     1210     1080     1600     1650     1300     1700   
                                           T        V       H0       H01     AOSYM     SMH    MOLCAS    ERIS     OPER   

 PROGRAMS   *        TOTAL       INT
 CPU TIMES  *         0.27      0.18
 REAL TIME  *         0.76 SEC
 DISK USED  *        33.86 MB
 **********************************************************************************************************************************


 Program * Restricted Hartree-Fock

 Orbital guess generated from atomic densities. Full valence occupancy:    5   5   1   1

 Initial occupancy:   4   3   1   1

 NELEC=   18   SYM=1   MS2= 0   THRE=1.0D-08   THRD=3.2D-06   THRG=3.2D-06  HFMA2=F  DIIS_START=2   DIIS_MAX=10   DIIS_INCORE=F

 Level shifts:    0.00 (CLOSED)    0.00 (OPEN)    0.30 (GAP_MIN)

 ITER           ETOT              DE          GRAD        DDIFF     DIIS  NEXP   TIME(IT)  TIME(TOT)  DIAG
   1     -150.73960841    -150.73960841     0.00D+00     0.37D+00     0     0       0.00      0.00    start
   2     -150.77085288      -0.03124447     0.21D-01     0.43D-01     1     0       0.00      0.00    diag
   3     -150.77222833      -0.00137545     0.48D-02     0.66D-02     2     0       0.00      0.00    diag
   4     -150.77237903      -0.00015070     0.13D-02     0.28D-02     3     0       0.00      0.00    diag
   5     -150.77239802      -0.00001900     0.47D-03     0.84D-03     4     0       0.00      0.00    diag
   6     -150.77239889      -0.00000087     0.72D-04     0.18D-03     5     0       0.00      0.00    diag
   7     -150.77239890      -0.00000001     0.87D-05     0.26D-04     6     0       0.00      0.00    diag
   8     -150.77239891      -0.00000000     0.14D-05     0.41D-05     7     0       0.00      0.00    fixocc
   9     -150.77239891      -0.00000000     0.47D-06     0.15D-05     8     0       0.00      0.00    diag
  10     -150.77239891      -0.00000000     0.13D-06     0.23D-06     0     0       0.00      0.00    diag/orth

 Final occupancy:   4   3   1   1

 !RHF STATE 1.1 Energy               -150.772398905144
  RHF One-electron energy            -281.544873262689
  RHF Two-electron energy              93.835695374650
  RHF Kinetic energy                  150.683480439554
  RHF Nuclear energy                   36.936778982895
  RHF Virial quotient                  -1.000590100954

 !RHF STATE 1.1 Dipole moment           0.00000000     0.00000000    -1.34168335
 Dipole moment /Debye                   0.00000000     0.00000000    -3.41021892

 Orbital energies:

           1.1          2.1          3.1          4.1          5.1          6.1
    -20.624975    -1.473734    -0.763373    -0.591208     0.157679     0.786978

           1.2          2.2          3.2          4.2          5.2
    -20.624688    -1.211496    -0.573088     0.193094     0.331393

           1.3          2.3          3.3
     -0.622930     1.145630     1.491223

           1.4          2.4          3.4
     -0.451250     1.250411     1.590678


 HOMO      1.4    -0.451250 =     -12.2791eV
 LUMO      5.1     0.157679 =       4.2907eV
 LUMO-HOMO         0.608929 =      16.5698eV

 Orbitals saved in record  2100.2


 **********************************************************************************************************************************
 DATASETS  * FILE   NREC   LENGTH (MB)   RECORD NAMES
              1      19       29.02       500      610      700      900      950      970     1000      129      960     1100   
                                          VAR    BASINP    GEOM    SYMINP    ZMAT    AOBASIS   BASIS     P2S    ABASIS      S 
                                         1400     1410     1200     1210     1080     1600     1650     1300     1700   
                                           T        V       H0       H01     AOSYM     SMH    MOLCAS    ERIS     OPER   

              2       4        0.44       700     1000      520     2100   
                                         GEOM     BASIS   MCVARS     RHF  

 PROGRAMS   *        TOTAL    HF-SCF       INT
 CPU TIMES  *         0.27      0.00      0.18
 REAL TIME  *         0.76 SEC
 DISK USED  *        33.86 MB
 **********************************************************************************************************************************


 PROGRAM * CCSD (Closed-shell coupled cluster)     Authors: C. Hampel, H.-J. Werner, 1991, M. Deegan, P.J. Knowles, 1992


 CORETYPE=SMALL

 Convergence thresholds:  THRVAR = 1.00D-08  THRDEN = 1.00D-06

 CCSD(T)     terms to be evaluated (factor= 1.000)


 Number of closed-shell orbitals:   9 (   4   3   1   1 )
 Number of external orbitals:      29 (  10  11   4   4 )

 Molecular orbitals read from record     2100.2  Type=RHF/CANONICAL  

 Number of N-1 electron functions:               9
 Number of N-2 electron functions:              45
 Number of singly external CSFs:                81
 Number of doubly external CSFs:              9174
 Total number of CSFs:                        9256

 Length of J-op  integral file:               0.00 MB
 Length of K-op  integral file:               0.09 MB
 Length of 3-ext integral record:             0.00 MB

 Memory could be reduced to 0.16 Mwords without degradation in triples

 Integral transformation finished. Total CPU:   0.00 sec, npass=  1  Memory used:   0.11 MW

 Reference energy:                   -150.77239891

 MP2 singlet pair energy:              -0.23977482
 MP2 triplet pair energy:              -0.14928426
 MP2 correlation energy:               -0.38905908
 MP2 total energy:                   -151.16145799

 SCS-MP2 correlation energy:           -0.38061777   (PS=  1.200000  PT=  0.333333)
 SCS-MP2 total energy:               -151.15301668

 ITER.      SQ.NORM     CORR.ENERGY   TOTAL ENERGY   ENERGY CHANGE        DEN1      VAR(S)    VAR(P)  DIIS     TIME  TIME/IT
   1      1.10485711    -0.40086153  -151.17326044    -0.01180245    -0.00248661  0.11D-02  0.18D-02  1  1     0.39     0.01
   2      1.11298737    -0.40284554  -151.17524445    -0.00198401    -0.00902435  0.25D-04  0.26D-03  2  2     0.39     0.01
   3      1.11616229    -0.40302918  -151.17542809    -0.00018364    -0.00200322  0.12D-04  0.14D-04  3  3     0.40     0.01
   4      1.11715698    -0.40306910  -151.17546801    -0.00003992    -0.00043087  0.16D-05  0.14D-05  4  4     0.40     0.01
   5      1.11740750    -0.40306798  -151.17546689     0.00000112    -0.00006086  0.46D-06  0.18D-06  5  5     0.41     0.01
   6      1.11747265    -0.40306685  -151.17546576     0.00000113    -0.00000208  0.54D-07  0.27D-07  6  6     0.42     0.01
   7      1.11749306    -0.40306690  -151.17546581    -0.00000005    -0.00000109  0.53D-08  0.38D-08  6  1     0.42     0.01
   8      1.11749604    -0.40306675  -151.17546565     0.00000015     0.00000143  0.63D-09  0.36D-09  6  2     0.43     0.01

 Norm of t1 vector:      0.04891011      S-energy:    -0.00000036      T1 diagnostic:  0.00815169
                                                                       D1 diagnostic:  0.02154117
                                                                       D2 diagnostic:  0.17386295 (external, symmetry=2)

 Doubles amplitudes (print threshold =  0.500E-01):

         I         J         SYM. A    SYM. B    A         B      T(IJ, AB)

         4         4         2         2         2         2     -0.06828406


 Total CPU time for triples:      0.02 sec


 RESULTS
 =======

  Reference energy                   -150.772398905144

  Correlated core orbitals:             1.1       1.2
  Orbital energies:                   -20.6250  -20.6247

  CCSD core-core energy                -0.000731343316
  CCSD core-valence energy             -0.003474860487
  CCSD valence correlation energy      -0.398860545626

  CCSD singlet pair energy             -0.273076786590
  CCSD triplet pair energy             -0.129989603067
  CCSD correlation energy              -0.403066749429

  Triples (T) contribution             -0.009113455038
  Total correlation energy             -0.412180204467

  CCSD total energy                  -151.175465654574
  CCSD[T] energy                     -151.184898232334
  CCSD-T energy                      -151.184451574815
 !CCSD(T) total energy               -151.184579109611

 Timing summary (sec):

 STEP                 CPU(USER)    SYS     CPU(TOT)    WALL
 CCSD iterations         0.44      0.00      0.44      0.06
 Triples                 0.02      0.00      0.02      0.02

 Program statistics:

 Available memory in ccsd:              3145727672
 Min. memory needed in ccsd:                 34106
 Max. memory used in ccsd:                   40715
 Max. memory used in cckext:                 74391 ( 8 integral passes)



 **********************************************************************************************************************************
 DATASETS  * FILE   NREC   LENGTH (MB)   RECORD NAMES
              1      20       29.46       500      610      700      900      950      970     1000      129      960     1100   
                                          VAR    BASINP    GEOM    SYMINP    ZMAT    AOBASIS   BASIS     P2S    ABASIS      S 
                                         1400     1410     1200     1210     1080     1600     1650     1300     1700     1380   
                                           T        V       H0       H01     AOSYM     SMH    MOLCAS    ERIS     OPER     JKOP   

              2       4        0.44       700     1000      520     2100   
                                         GEOM     BASIS   MCVARS     RHF  

 PROGRAMS   *        TOTAL   CCSD(T)    HF-SCF       INT
 CPU TIMES  *         0.38      0.10      0.00      0.18
 REAL TIME  *         0.88 SEC
 DISK USED  *        33.86 MB
 **********************************************************************************************************************************

 Dump information in style XML to xml output                                                                      

 Orbitals will not be exported.

 **********************************************************************************************************************************

 CCSD(T)/cc-pVDZ energy=   -151.184579109611

         CCSD(T)          HF-SCF
   -151.18457911   -150.77239891
 **********************************************************************************************************************************
 Molpro calculation terminated
