
 Working directory              : /var/folders/2v/xbgp75_9785319ghcgb4zr4r0000gr/T//molpro.gYWfXeEzgM/
 Global scratch directory       : /var/folders/2v/xbgp75_9785319ghcgb4zr4r0000gr/T//molpro.gYWfXeEzgM/
 Wavefunction directory         : /Users/peterk/wfu/
 Main file repository           : /var/folders/2v/xbgp75_9785319ghcgb4zr4r0000gr/T//molpro.gYWfXeEzgM/

 id        : peterk

 Nodes        nprocs
 pjk2022.local    1
 GA implementation: MPI file
 GA implementation (serial work in mppx): MPI file

 Using customized tuning parameters: mindgm=1; mindgv=20; mindgc=4; mindgr=1; noblas=0; minvec=7
 default implementation of scratch files=df  


 Variables initialized (1037), CPU time= 0.00 sec
 
 
 
 geometry={
 5
  N    -0.3896245   -0.4975700    0.0000000
  O    -0.3776717    0.9154097    0.0000000
  H     0.1141459   -0.8133419    0.8207146
  H     0.1141459   -0.8133419   -0.8207146
  H     0.5390043    1.2088440    0.0000000
 }
 basis=cc-pVDZ
 core,small
 
 
 hf; papt;mp2
 
 
 
 {put,xml;noorbitals,nobasis}
 Commands initialized (841), CPU time= 0.01 sec, 716 directives.
 Default parameters read. Elapsed time= 0.05 sec

 Checking input...
 Passed
1


                                         ***  PROGRAM SYSTEM MOLPRO  ***
                                       Copyright, TTI GmbH Stuttgart, 2015
                                    Version 2023.1 linked Sat Jul 22 07:59:25 2023


 **********************************************************************************************************************************
 LABEL *                                                                                                                                                                 
  64 bit serial version                                                                  DATE: 01-Aug-23          TIME: 21:48:56  
 **********************************************************************************************************************************

 SHA1:             401d111a1dbfa49388eacdf0424f85138b2d30d0
 **********************************************************************************************************************************

 Memory per process:      3146 MW
 Total memory per node:   4194 MW
 Total GA space:          1049 MW

 GA preallocation disabled
 GA check enabled

 Geometry recognized as XYZ


 Variable memory set to 3145.7 MW

 SETTING BASIS          =    CC-PVDZ


 Recomputing integrals since basis changed


 Using spherical harmonics

 Library entry N      S cc-pVDZ              selected for orbital group  1
 Library entry N      P cc-pVDZ              selected for orbital group  1
 Library entry N      D cc-pVDZ              selected for orbital group  1
 Library entry O      S cc-pVDZ              selected for orbital group  2
 Library entry O      P cc-pVDZ              selected for orbital group  2
 Library entry O      D cc-pVDZ              selected for orbital group  2
 Library entry H      S cc-pVDZ              selected for orbital group  3
 Library entry H      P cc-pVDZ              selected for orbital group  3


 PROGRAM * SEWARD (Integral evaluation for generally contracted gaussian basis sets)     Author: Roland Lindh, 1990

 Geometry written to block  1 of record 700


 Point group  Cs  



 ATOMIC COORDINATES

 NR  ATOM    CHARGE       X              Y              Z

   1  N       7.00   -0.736283596   -0.940271028    0.000000000
   2  O       8.00   -0.713696078    1.729873625    0.000000000
   3  H       1.00    0.215704489   -1.536993437    1.550925820
   4  H       1.00    0.215704489   -1.536993437   -1.550925820
   5  H       1.00    1.018570507    2.284384087    0.000000000

 Bond lengths in Bohr (Angstrom)

 1-2  2.670240188  1-3  1.915131810  1-4  1.915131810  2-5  1.818853863
     ( 1.413030255)     ( 1.013444110)     ( 1.013444110)     ( 0.962496014)

 Bond angles

  1-2-5  108.23489657   2-1-3  107.90062162   2-1-4  107.90062162   3-1-4  108.15810256

 NUCLEAR CHARGE:                   18
 NUMBER OF PRIMITIVE AOS:          75
 NUMBER OF SYMMETRY AOS:           73
 NUMBER OF CONTRACTIONS:           43   (   29A'  +   14A"  )
 NUMBER OF INNER CORE ORBITALS:     0   (    0A'  +    0A"  )
 NUMBER OF OUTER CORE ORBITALS:     2   (    2A'  +    0A"  )
 NUMBER OF VALENCE ORBITALS:       11   (    8A'  +    3A"  )


 NUCLEAR REPULSION ENERGY   39.67072628

 Eigenvalues of metric

         1 0.940E-02 0.224E-01 0.395E-01 0.450E-01 0.694E-01 0.131E+00 0.136E+00 0.155E+00
         2 0.379E-01 0.752E-01 0.137E+00 0.186E+00 0.500E+00 0.569E+00 0.643E+00 0.954E+00


 Contracted 2-electron integrals neglected if value below      1.0D-11
 AO integral compression algorithm  1   Integral accuracy      1.0D-11

     1.573 MB (compressed) written to integral file ( 65.0%)


 NUMBER OF SORTED TWO-ELECTRON INTEGRALS:     237420.     BUFFER LENGTH:  32768
 NUMBER OF SEGMENTS:   1  SEGMENT LENGTH:     237420      RECORD LENGTH: 524288

 Memory used in sort:       0.79 MW

 SORT1 READ      297296. AND WROTE      232046. INTEGRALS IN      1 RECORDS. CPU TIME:     0.00 SEC, REAL TIME:     0.00 SEC
 SORT2 READ      232046. AND WROTE      237420. INTEGRALS IN      6 RECORDS. CPU TIME:     0.02 SEC, REAL TIME:     0.01 SEC

 FILE SIZES:   FILE 1:    31.7 MBYTE,  FILE 4:     4.3 MBYTE,   TOTAL:     35.9 MBYTE

 OPERATOR DM      FOR CENTER  0  COORDINATES:    0.000000    0.000000    0.000000


 **********************************************************************************************************************************
 DATASETS  * FILE   NREC   LENGTH (MB)   RECORD NAMES
              1      19       29.78       500      610      700      900      950      970     1000      129      960     1100   
                                          VAR    BASINP    GEOM    SYMINP    ZMAT    AOBASIS   BASIS     P2S    ABASIS      S 
                                         1400     1410     1200     1210     1080     1600     1650     1300     1700   
                                           T        V       H0       H01     AOSYM     SMH    MOLCAS    ERIS     OPER   

 PROGRAMS   *        TOTAL       INT
 CPU TIMES  *         0.31      0.21
 REAL TIME  *         0.77 SEC
 DISK USED  *        34.66 MB
 **********************************************************************************************************************************


 Program * Restricted Hartree-Fock

 Orbital guess generated from atomic densities. Full valence occupancy:   10   3

 Initial occupancy:   7   2

 NELEC=   18   SYM=1   MS2= 0   THRE=1.0D-08   THRD=3.2D-06   THRG=3.2D-06  HFMA2=F  DIIS_START=2   DIIS_MAX=10   DIIS_INCORE=F

 Level shifts:    0.00 (CLOSED)    0.00 (OPEN)    0.30 (GAP_MIN)

 ITER           ETOT              DE          GRAD        DDIFF     DIIS  NEXP   TIME(IT)  TIME(TOT)  DIAG
   1     -130.95565478    -130.95565478     0.00D+00     0.24D+00     0     0       0.00      0.00    start
   2     -130.98636601      -0.03071124     0.14D-01     0.30D-01     1     0       0.00      0.00    diag
   3     -130.98988469      -0.00351868     0.54D-02     0.80D-02     2     0       0.00      0.00    diag
   4     -130.99029036      -0.00040567     0.16D-02     0.26D-02     3     0       0.00      0.00    diag
   5     -130.99032320      -0.00003284     0.38D-03     0.79D-03     4     0       0.00      0.00    diag
   6     -130.99032500      -0.00000179     0.76D-04     0.17D-03     5     0       0.00      0.00    diag
   7     -130.99032530      -0.00000031     0.30D-04     0.70D-04     6     0       0.01      0.01    diag
   8     -130.99032533      -0.00000003     0.66D-05     0.24D-04     7     0       0.00      0.01    fixocc
   9     -130.99032533      -0.00000000     0.13D-05     0.50D-05     8     0       0.00      0.01    diag
  10     -130.99032533      -0.00000000     0.30D-06     0.11D-05     9     0       0.00      0.01    diag/orth
  11     -130.99032533      -0.00000000     0.80D-07     0.16D-06     0     0       0.00      0.01    diag

 Final occupancy:   7   2

 !RHF STATE 1.1 Energy               -130.990325329015
  RHF One-electron energy            -258.284413296868
  RHF Two-electron energy              87.623361683097
  RHF Kinetic energy                  130.904908949179
  RHF Nuclear energy                   39.670726284755
  RHF Virial quotient                  -1.000652507080

 !RHF STATE 1.1 Dipole moment           1.26108352    -0.29856201     0.00000000
 Dipole moment /Debye                   3.20535458    -0.75886893     0.00000000

 Orbital energies:

           1.1          2.1          3.1          4.1          5.1          6.1          7.1          8.1          9.1
    -20.580924   -15.601375    -1.397410    -1.072330    -0.710586    -0.568650    -0.421546     0.173770     0.213474

           1.2          2.2          3.2          4.2
     -0.689801    -0.476224     0.249996     0.772793


 HOMO      7.1    -0.421546 =     -11.4708eV
 LUMO      8.1     0.173770 =       4.7285eV
 LUMO-HOMO         0.595316 =      16.1994eV

 Orbitals saved in record  2100.2


 **********************************************************************************************************************************
 DATASETS  * FILE   NREC   LENGTH (MB)   RECORD NAMES
              1      19       29.78       500      610      700      900      950      970     1000      129      960     1100   
                                          VAR    BASINP    GEOM    SYMINP    ZMAT    AOBASIS   BASIS     P2S    ABASIS      S 
                                         1400     1410     1200     1210     1080     1600     1650     1300     1700   
                                           T        V       H0       H01     AOSYM     SMH    MOLCAS    ERIS     OPER   

              2       4        0.46       700     1000      520     2100   
                                         GEOM     BASIS   MCVARS     RHF  

 PROGRAMS   *        TOTAL    HF-SCF       INT
 CPU TIMES  *         0.32      0.01      0.21
 REAL TIME  *         0.79 SEC
 DISK USED  *        34.66 MB
 **********************************************************************************************************************************


 PROGRAM * PAPT (Closed-shell)     Authors: C. Hampel, H.-J. Werner, 1991, P.J. Knowles, 2021


 CORETYPE=SMALL

 Convergence thresholds:  THRVAR = 1.00D-08  THRDEN = 1.00D-06

 Number of closed-shell orbitals:   9 (   7   2 )
 Number of external orbitals:      34 (  22  12 )

 Molecular orbitals read from record     2100.2  Type=RHF/CANONICAL  

 Number of N-1 electron functions:               9
 Number of N-2 electron functions:              45
 Number of singly external CSFs:               178
 Number of doubly external CSFs:             24187
 Total number of CSFs:                       24366

 Length of J-op  integral file:               0.00 MB
 Length of K-op  integral file:               0.13 MB

 Integral transformation finished. Total CPU:   0.00 sec, npass=  1  Memory used:   0.12 MW

 Reference energy:                   -130.99032533

                        CORR.ENERGY   TOTAL ENERGY   ENERGY CHANGE
 MP2:                   -0.36946361  -131.35978894    -0.36946361

 SCS-MP2 correlation energy:           -0.36337791   (PS=  1.200000  PT=  0.333333)
 SCS-MP2 total energy:               -131.35370324
 Iteration:   1     0.2156D+00
 Iteration:   2     0.1095D+01
 Iteration:   3     0.8683D-01
 Iteration:   4     0.2379D+00
 Iteration:   5     0.4767D-01
 Iteration:   6     0.5647D-01
 Iteration:   7     0.4836D-01
 Iteration:   8     0.1672D-01
 Iteration:   9     0.1563D-01
 Iteration:  10     0.4763D-02
 Iteration:  11     0.1120D-01
 Iteration:  12     0.1768D-02
 Iteration:  13     0.2467D-02
 Iteration:  14     0.1370D-02
 Iteration:  15     0.7923D-03
 Iteration:  16     0.1184D-02
 Iteration:  17     0.2732D-03
 Iteration:  18     0.6540D-02
 Iteration:  19     0.8834D-04
 PAPT operator written to  7000.1
 PAPT orbitals and eigenvalues written to  7000.2

 MP3(D):                -0.38385885  -131.37418418    -0.01439524



 RESULTS
 =======

  Reference energy                   -130.990325329016

  Correlated core orbitals:             1.1       2.1
  Orbital energies:                   -20.5809  -15.6014

  MP3 core-core energy                 -0.000908953306
  MP3 core-valence energy              -0.003653718841
  MP3 valence correlation energy       -0.379296178763

  MP3 singlet pair energy              -0.255924065257
  MP3 triplet pair energy              -0.127934785653
  MP3 correlation energy               -0.383858850910

 !MP3 total energy                   -131.374184179926

 Timing summary (sec):

 STEP                 CPU(USER)    SYS     CPU(TOT)    WALL
 CCSD iterations         0.50      0.01      0.51      0.08

 Program statistics:

 Available memory in ccsd:              3145727669
 Min. memory needed in ccsd:                 84431
 Max. memory used in ccsd:                  102586
 Max. memory used in cckext:                139201 ( 1 integral passes)



 **********************************************************************************************************************************
 DATASETS  * FILE   NREC   LENGTH (MB)   RECORD NAMES
              1      21       30.30       500      610      700      900      950      970     1000      129      960     1100   
                                          VAR    BASINP    GEOM    SYMINP    ZMAT    AOBASIS   BASIS     P2S    ABASIS      S 
                                         1400     1410     1200     1210     1080     1600     1650     1300     1700     1380   
                                           T        V       H0       H01     AOSYM     SMH    MOLCAS    ERIS     OPER     JKOP   
                                         7000   
                                        PAPT AO    

              2       5        0.58       700     1000      520     2100     7000   
                                         GEOM     BASIS   MCVARS     RHF     PAPT   

 PROGRAMS   *        TOTAL      PAPT    HF-SCF       INT
 CPU TIMES  *         0.42      0.10      0.01      0.21
 REAL TIME  *         0.90 SEC
 DISK USED  *        34.66 MB
 **********************************************************************************************************************************


 PROGRAM * MP2 (Closed-shell)     Authors: C. Hampel, H.-J. Werner, 1991, M. Deegan, P.J. Knowles, 1992


 CORETYPE=SMALL

 Convergence thresholds:  THRVAR = 1.00D-08  THRDEN = 1.00D-06

 Number of closed-shell orbitals:   9 (   7   2 )
 Number of external orbitals:      34 (  22  12 )

 Molecular orbitals read from record     7000.2  Type=PAPT/CANONICAL (state 1.1)

 Number of N-1 electron functions:               9
 Number of N-2 electron functions:              45
 Number of singly external CSFs:               178
 Number of doubly external CSFs:             24187
 Total number of CSFs:                       24366

 Length of J-op  integral file:               0.00 MB
 Length of K-op  integral file:               0.13 MB

 Integral transformation finished. Total CPU:   0.00 sec, npass=  1  Memory used:   0.12 MW
 Orbital energies read from record       7000.2  Type=PAPT/CANONICAL (state 1.1)

 Memory needed for MP2:                      0.01 MW

 SCS-MP2 correlation energy:           -0.382374754264   (PS=  1.200000  PT=  0.333333)
 SCS-MP2 total energy:               -131.372700083279


  Reference energy                   -130.990325329016

  Correlated core orbitals:             1.1       2.1
  Orbital energies:                   -21.4893  -15.9889

  MP2 core-core energy                 -0.000913931599
  MP2 core-valence energy              -0.003593348702
  MP2 valence correlation energy       -0.382388776842

  MP2 singlet pair energy              -0.245145166995
  MP2 triplet pair energy              -0.141750890149
  MP2 correlation energy               -0.386896057143

 !MP2 total energy                   -131.377221386159


 **********************************************************************************************************************************
 DATASETS  * FILE   NREC   LENGTH (MB)   RECORD NAMES
              1      21       30.30       500      610      700      900      950      970     1000      129      960     1100   
                                          VAR    BASINP    GEOM    SYMINP    ZMAT    AOBASIS   BASIS     P2S    ABASIS      S 
                                         1400     1410     1200     1210     1080     1600     1650     1300     1700     1380   
                                           T        V       H0       H01     AOSYM     SMH    MOLCAS    ERIS     OPER     JKOP   
                                         7000   
                                        PAPT AO    

              2       5        0.58       700     1000      520     2100     7000   
                                         GEOM     BASIS   MCVARS     RHF     PAPT   

 PROGRAMS   *        TOTAL       MP2      PAPT    HF-SCF       INT
 CPU TIMES  *         0.46      0.04      0.10      0.01      0.21
 REAL TIME  *         0.95 SEC
 DISK USED  *        34.66 MB
 **********************************************************************************************************************************

 Dump information in style XML to xml output                                                                      

 Orbitals will not be exported.

 **********************************************************************************************************************************

 MP2/cc-pVDZ energy=   -131.377221386159

             MP2            PAPT          HF-SCF
   -131.37722139   -131.37418418   -130.99032533
 **********************************************************************************************************************************
 Molpro calculation terminated
