
 Working directory              : /var/folders/2v/xbgp75_9785319ghcgb4zr4r0000gr/T//molpro.AuH1DllL7z/
 Global scratch directory       : /var/folders/2v/xbgp75_9785319ghcgb4zr4r0000gr/T//molpro.AuH1DllL7z/
 Wavefunction directory         : /Users/peterk/wfu/
 Main file repository           : /var/folders/2v/xbgp75_9785319ghcgb4zr4r0000gr/T//molpro.AuH1DllL7z/

 id        : peterk

 Nodes        nprocs
 pjk2022.local    1
 GA implementation: MPI file
 GA implementation (serial work in mppx): MPI file

 Using customized tuning parameters: mindgm=1; mindgv=20; mindgc=4; mindgr=1; noblas=0; minvec=7
 default implementation of scratch files=df  


 Variables initialized (1037), CPU time= 0.01 sec
 
 
 
 geometry={
 8
  C     0.0000000   -0.0000000   -0.7565307
  C     0.0000000    0.0000000    0.7565307
  H     0.8767674    0.5062019   -1.1518715
  H    -0.0000000   -1.0124038   -1.1518715
  H    -0.8767674    0.5062019   -1.1518715
  H    -0.8767674   -0.5062019    1.1518715
  H     0.8767674   -0.5062019    1.1518715
  H    -0.0000000    1.0124038    1.1518715
 }
 basis=cc-pVTZ
 core,small
 
 
 hf; mp4
 
 
 
 {put,xml;noorbitals,nobasis}
 Commands initialized (841), CPU time= 0.00 sec, 716 directives.
 Default parameters read. Elapsed time= 0.07 sec

 Checking input...
 Passed
1


                                         ***  PROGRAM SYSTEM MOLPRO  ***
                                       Copyright, TTI GmbH Stuttgart, 2015
                                    Version 2023.1 linked Sat Jul 22 07:59:25 2023


 **********************************************************************************************************************************
 LABEL *                                                                                                                                                                 
  64 bit serial version                                                                  DATE: 01-Aug-23          TIME: 17:19:06  
 **********************************************************************************************************************************

 SHA1:             401d111a1dbfa49388eacdf0424f85138b2d30d0
 **********************************************************************************************************************************

 Memory per process:      3146 MW
 Total memory per node:   4194 MW
 Total GA space:          1049 MW

 GA preallocation disabled
 GA check enabled

 Geometry recognized as XYZ


 Variable memory set to 3145.7 MW

 SETTING BASIS          =    CC-PVTZ


 Recomputing integrals since basis changed


 Using spherical harmonics

 Library entry C      S cc-pVTZ              selected for orbital group  1
 Library entry C      P cc-pVTZ              selected for orbital group  1
 Library entry C      D cc-pVTZ              selected for orbital group  1
 Library entry C      F cc-pVTZ              selected for orbital group  1
 Library entry H      S cc-pVTZ              selected for orbital group  2
 Library entry H      P cc-pVTZ              selected for orbital group  2
 Library entry H      D cc-pVTZ              selected for orbital group  2


 PROGRAM * SEWARD (Integral evaluation for generally contracted gaussian basis sets)     Author: Roland Lindh, 1990

 Geometry written to block  1 of record 700


 Point group  C2h 



 ATOMIC COORDINATES

 NR  ATOM    CHARGE       X              Y              Z

   1  C       6.00    0.000000000    0.000000000   -1.429635828
   2  C       6.00    0.000000000    0.000000000    1.429635828
   3  H       1.00    1.656850261    0.956582955   -2.176721666
   4  H       1.00   -1.656850261    0.956582955   -2.176721666
   5  H       1.00   -1.656850261   -0.956582955    2.176721666
   6  H       1.00    1.656850261   -0.956582955    2.176721666
   7  H       1.00    0.000000000   -1.913165910   -2.176721666
   8  H       1.00    0.000000000    1.913165910    2.176721666

 Bond lengths in Bohr (Angstrom)

 1-2  2.859271656  1-3  2.053860021  1-4  2.053860021  1-7  2.053860036  2-5  2.053860021
     ( 1.513061400)     ( 1.086855918)     ( 1.086855918)     ( 1.086855925)     ( 1.086855918)

 2-6  2.053860021  2-8  2.053860036
     ( 1.086855918)     ( 1.086855925)

 Bond angles

  1-2-5  111.33050375   1-2-6  111.33050375   1-2-8  111.33050359   2-1-3  111.33050375

  2-1-4  111.33050375   2-1-7  111.33050359   3-1-4  107.54963893   3-1-7  107.54963966

  4-1-7  107.54963966   5-2-6  107.54963893   5-2-8  107.54963966   6-2-8  107.54963966

 NUCLEAR CHARGE:                   18
 NUMBER OF PRIMITIVE AOS:         196
 NUMBER OF SYMMETRY AOS:          180
 NUMBER OF CONTRACTIONS:          144   (   44Ag  +   28Au  +   44Bu  +   28Bg  )
 NUMBER OF INNER CORE ORBITALS:     0   (    0Ag  +    0Au  +    0Bu  +    0Bg  )
 NUMBER OF OUTER CORE ORBITALS:     2   (    1Ag  +    0Au  +    1Bu  +    0Bg  )
 NUMBER OF VALENCE ORBITALS:       14   (    5Ag  +    2Au  +    5Bu  +    2Bg  )


 NUCLEAR REPULSION ENERGY   42.52694634


 Eigenvalues of metric

         1 0.118E-02 0.162E-02 0.422E-02 0.108E-01 0.135E-01 0.171E-01 0.173E-01 0.294E-01
         2 0.167E-02 0.869E-02 0.241E-01 0.254E-01 0.446E-01 0.883E-01 0.118E+00 0.143E+00
         3 0.127E-02 0.165E-02 0.167E-02 0.322E-02 0.869E-02 0.101E-01 0.202E-01 0.241E-01
         4 0.162E-02 0.108E-01 0.171E-01 0.173E-01 0.373E-01 0.674E-01 0.953E-01 0.124E+00


 Contracted 2-electron integrals neglected if value below      1.0D-11
 AO integral compression algorithm  1   Integral accuracy      1.0D-11

     83.100 MB (compressed) written to integral file ( 54.5%)


 NUMBER OF SORTED TWO-ELECTRON INTEGRALS:   13957892.     BUFFER LENGTH:  32768
 NUMBER OF SEGMENTS:   1  SEGMENT LENGTH:   13957892      RECORD LENGTH: 524288

 Memory used in sort:      14.51 MW

 SORT1 READ    19057736. AND WROTE    13695244. INTEGRALS IN     40 RECORDS. CPU TIME:     0.18 SEC, REAL TIME:     0.23 SEC
 SORT2 READ    13695244. AND WROTE    13957892. INTEGRALS IN    317 RECORDS. CPU TIME:     0.19 SEC, REAL TIME:     0.23 SEC

 FILE SIZES:   FILE 1:   113.7 MBYTE,  FILE 4:   167.8 MBYTE,   TOTAL:    281.5 MBYTE

 OPERATOR DM      FOR CENTER  0  COORDINATES:    0.000000    0.000000    0.000000


 **********************************************************************************************************************************
 DATASETS  * FILE   NREC   LENGTH (MB)   RECORD NAMES
              1      19       88.41       500      610      700      900      950      970     1000      129      960     1100   
                                          VAR    BASINP    GEOM    SYMINP    ZMAT    AOBASIS   BASIS     P2S    ABASIS      S 
                                         1400     1410     1200     1210     1080     1600     1650     1300     1700   
                                           T        V       H0       H01     AOSYM     SMH    MOLCAS    ERIS     OPER   

 PROGRAMS   *        TOTAL       INT
 CPU TIMES  *         1.82      1.73
 REAL TIME  *         3.21 SEC
 DISK USED  *       268.95 MB
 **********************************************************************************************************************************


 Program * Restricted Hartree-Fock

 Orbital guess generated from atomic densities. Full valence occupancy:    6   2   6   2

 Initial occupancy:   4   1   3   1

 NELEC=   18   SYM=1   MS2= 0   THRE=1.0D-08   THRD=3.2D-06   THRG=3.2D-06  HFMA2=F  DIIS_START=2   DIIS_MAX=10   DIIS_INCORE=F

 Level shifts:    0.00 (CLOSED)    0.00 (OPEN)    0.30 (GAP_MIN)

 ITER           ETOT              DE          GRAD        DDIFF     DIIS  NEXP   TIME(IT)  TIME(TOT)  DIAG
   1      -79.22829365     -79.22829365     0.00D+00     0.11D+00     0     0       0.03      0.05    start
   2      -79.25560632      -0.02731268     0.78D-02     0.11D-01     1     0       0.02      0.07    diag
   3      -79.25936060      -0.00375427     0.31D-02     0.32D-02     2     0       0.02      0.09    diag
   4      -79.25992854      -0.00056794     0.91D-03     0.12D-02     3     0       0.03      0.12    diag
   5      -79.25993999      -0.00001145     0.11D-03     0.29D-03     4     0       0.02      0.14    diag
   6      -79.25994014      -0.00000015     0.13D-04     0.45D-04     5     0       0.02      0.16    diag
   7      -79.25994014      -0.00000000     0.14D-05     0.36D-05     6     0       0.03      0.19    diag
   8      -79.25994015      -0.00000000     0.23D-06     0.42D-06     7     0       0.02      0.21    fixocc
   9      -79.25994015      -0.00000000     0.34D-07     0.62D-07     0     0       0.02      0.23    diag

 Final occupancy:   4   1   3   1

 !RHF STATE 1.1 Energy                -79.259940145036
  RHF One-electron energy            -189.647588354526
  RHF Two-electron energy              67.860701871804
  RHF Kinetic energy                   79.220702707032
  RHF Nuclear energy                   42.526946337687
  RHF Virial quotient                  -1.000495292729

 !RHF STATE 1.1 Dipole moment           0.00000000     0.00000000    -0.00000000
 Dipole moment /Debye                   0.00000000     0.00000000    -0.00000000

 Orbital energies:

           1.1          2.1          3.1          4.1          5.1          6.1
    -11.208600    -1.021796    -0.513122    -0.485974     0.141511     0.237684

           1.2          2.2          3.2
     -0.598724     0.208937     0.414202

           1.3          2.3          3.3          4.3          5.3
    -11.207961    -0.842216    -0.598724     0.182642     0.208937

           1.4          2.4          3.4
     -0.485974     0.237684     0.401676


 HOMO      1.4    -0.485974 =     -13.2240eV
 LUMO      5.1     0.141511 =       3.8507eV
 LUMO-HOMO         0.627485 =      17.0747eV

 Orbitals saved in record  2100.2


 **********************************************************************************************************************************
 DATASETS  * FILE   NREC   LENGTH (MB)   RECORD NAMES
              1      19       88.41       500      610      700      900      950      970     1000      129      960     1100   
                                          VAR    BASINP    GEOM    SYMINP    ZMAT    AOBASIS   BASIS     P2S    ABASIS      S 
                                         1400     1410     1200     1210     1080     1600     1650     1300     1700   
                                           T        V       H0       H01     AOSYM     SMH    MOLCAS    ERIS     OPER   

              2       4        0.60       700     1000      520     2100   
                                         GEOM     BASIS   MCVARS     RHF  

 PROGRAMS   *        TOTAL    HF-SCF       INT
 CPU TIMES  *         2.06      0.24      1.73
 REAL TIME  *         3.50 SEC
 DISK USED  *       268.95 MB
 **********************************************************************************************************************************


 PROGRAM * MP4 (Closed-shell)     Authors: C. Hampel, H.-J. Werner, 1991, M. Deegan, P.J. Knowles, 1992


 CORETYPE=SMALL

 Convergence thresholds:  THRVAR = 1.00D-08  THRDEN = 1.00D-06

 MP4(T)     terms to be evaluated (factor= 0.000)


 Number of closed-shell orbitals:   9 (   4   1   3   1 )
 Number of external orbitals:     135 (  40  27  41  27 )

 Molecular orbitals read from record     2100.2  Type=RHF/CANONICAL  

 Number of N-1 electron functions:               9
 Number of N-2 electron functions:              45
 Number of singly external CSFs:               337
 Number of doubly external CSFs:            187414
 Total number of CSFs:                      187752

 Length of J-op  integral file:               0.00 MB
 Length of K-op  integral file:               0.44 MB

 Memory could be reduced to 7.25 Mwords without degradation in triples

 Integral transformation finished. Total CPU:   0.14 sec, npass=  1  Memory used:   1.33 MW

 Reference energy:                    -79.25994015

                        CORR.ENERGY   TOTAL ENERGY   ENERGY CHANGE
 MP2:                   -0.40216763   -79.66210777    -0.40216763

 SCS-MP2 correlation energy:           -0.41392529   (PS=  1.200000  PT=  0.333333)
 SCS-MP2 total energy:                -79.67386543

 MP3(D):                -0.43203435   -79.69197450    -0.02986672
 MP4(DQ):               -0.43221772   -79.69215786    -0.00018337
 MP4(SDQ):              -0.43433719   -79.69427733    -0.00211947

 Norm of t1 vector:      0.03426378      S-energy:    -0.00211947      T1 diagnostic:  0.00571063


 Total CPU time for triples:      2.54 sec


 RESULTS
 =======

  Reference energy                    -79.259940145036

  Correlated core orbitals:             1.1       1.3
  Orbital energies:                   -11.2086  -11.2080

  MP4(SDQ) core-core energy            -0.021659798488
  MP4(SDQ) core-valence energy         -0.012414705185
  MP4(SDQ) valence correlation ener    -0.400262683666

  MP4(SDQ) singlet pair energy         -0.316296616679
  MP4(SDQ) triplet pair energy         -0.115921101817
  MP4(SDQ) correlation energy          -0.434337187340

  Triples contribution                 -0.013126206957
  Total correlation energy             -0.447463394297

  MP4(SDQ) total energy               -79.694277332375
 !MP4(SDTQ) total energy              -79.707403539332

 Timing summary (sec):

 STEP                 CPU(USER)    SYS     CPU(TOT)    WALL
 Transformation          0.15      0.02      0.17      0.17
 CCSD iterations         2.43      0.02      2.45      0.27
 Triples                 2.54      0.14      2.68      2.93

 Program statistics:

 Available memory in ccsd:              3145727672
 Min. memory needed in ccsd:                544376
 Max. memory used in ccsd:                  704909
 Max. memory used in cckext:                642421 ( 1 integral passes)



 **********************************************************************************************************************************
 DATASETS  * FILE   NREC   LENGTH (MB)   RECORD NAMES
              1      20      112.62       500      610      700      900      950      970     1000      129      960     1100   
                                          VAR    BASINP    GEOM    SYMINP    ZMAT    AOBASIS   BASIS     P2S    ABASIS      S 
                                         1400     1410     1200     1210     1080     1600     1650     1300     1700     1380   
                                           T        V       H0       H01     AOSYM     SMH    MOLCAS    ERIS     OPER     JKOP   

              2       4        0.60       700     1000      520     2100   
                                         GEOM     BASIS   MCVARS     RHF  

 PROGRAMS   *        TOTAL       MP4    HF-SCF       INT
 CPU TIMES  *         5.02      2.96      0.24      1.73
 REAL TIME  *         6.92 SEC
 DISK USED  *       268.95 MB
 **********************************************************************************************************************************

 Dump information in style XML to xml output                                                                      

 Orbitals will not be exported.

 **********************************************************************************************************************************

 MP4/cc-pVTZ energy=    -79.707403539332

             MP4          HF-SCF
    -79.70740354    -79.25994015
 **********************************************************************************************************************************
 Molpro calculation terminated
