
 Working directory              : /var/folders/2v/xbgp75_9785319ghcgb4zr4r0000gr/T//molpro.ZZBMzNpVyD/
 Global scratch directory       : /var/folders/2v/xbgp75_9785319ghcgb4zr4r0000gr/T//molpro.ZZBMzNpVyD/
 Wavefunction directory         : /Users/peterk/wfu/
 Main file repository           : /var/folders/2v/xbgp75_9785319ghcgb4zr4r0000gr/T//molpro.ZZBMzNpVyD/

 id        : peterk

 Nodes        nprocs
 pjk2022.local    1
 GA implementation: MPI file
 GA implementation (serial work in mppx): MPI file

 Using customized tuning parameters: mindgm=1; mindgv=20; mindgc=4; mindgr=1; noblas=0; minvec=7
 default implementation of scratch files=df  


 Variables initialized (1037), CPU time= 0.00 sec
 
 
 
 geometry={
 16
  C    -1.3656935   -1.3512634    0.0000000
  C    -2.7484086   -1.0224421    0.0000000
  C    -2.8156508    0.3249638    0.0000000
  O    -1.5751158    0.8611200    0.0000000
  C    -0.6954624   -0.1694461    0.0000000
  C     0.6954624    0.1694461    0.0000000
  O     1.5751158   -0.8611200    0.0000000
  C     2.8156508   -0.3249638    0.0000000
  C     2.7484086    1.0224421    0.0000000
  C     1.3656935    1.3512634    0.0000000
  H    -0.9206722   -2.3269899    0.0000000
  H    -3.5790533   -1.7013250    0.0000000
  H    -3.6279757    1.0236724    0.0000000
  H     3.6279757   -1.0236724    0.0000000
  H     3.5790533    1.7013250    0.0000000
  H     0.9206722    2.3269899    0.0000000
 }
 basis=cc-pVDZ
 core,small
 
 
 hf; ccsd
 
 
 
 {put,xml;noorbitals,nobasis}
 Commands initialized (841), CPU time= 0.00 sec, 716 directives.
 Default parameters read. Elapsed time= 0.06 sec

 Checking input...
 Passed
1


                                         ***  PROGRAM SYSTEM MOLPRO  ***
                                       Copyright, TTI GmbH Stuttgart, 2015
                                    Version 2023.1 linked Sat Jul 22 07:59:25 2023


 **********************************************************************************************************************************
 LABEL *                                                                                                                                                                 
  64 bit serial version                                                                  DATE: 02-Aug-23          TIME: 09:02:16  
 **********************************************************************************************************************************

 SHA1:             401d111a1dbfa49388eacdf0424f85138b2d30d0
 **********************************************************************************************************************************

 Memory per process:      3146 MW
 Total memory per node:   4194 MW
 Total GA space:          1049 MW

 GA preallocation disabled
 GA check enabled

 Geometry recognized as XYZ


 Variable memory set to 3145.7 MW

 SETTING BASIS          =    CC-PVDZ


 Recomputing integrals since basis changed


 Using spherical harmonics

 Library entry C      S cc-pVDZ              selected for orbital group  1
 Library entry C      P cc-pVDZ              selected for orbital group  1
 Library entry C      D cc-pVDZ              selected for orbital group  1
 Library entry O      S cc-pVDZ              selected for orbital group  2
 Library entry O      P cc-pVDZ              selected for orbital group  2
 Library entry O      D cc-pVDZ              selected for orbital group  2
 Library entry H      S cc-pVDZ              selected for orbital group  4
 Library entry H      P cc-pVDZ              selected for orbital group  4


 PROGRAM * SEWARD (Integral evaluation for generally contracted gaussian basis sets)     Author: Roland Lindh, 1990

 Geometry written to block  1 of record 700


 Point group  C2h 



 ATOMIC COORDINATES

 NR  ATOM    CHARGE       X              Y              Z

   1  C       6.00   -2.580786685   -2.553517748    0.000000000
   2  C       6.00    2.580786685    2.553517748    0.000000000
   3  C       6.00   -5.193739533   -1.932135547    0.000000000
   4  C       6.00    5.193739533    1.932135547    0.000000000
   5  C       6.00   -5.320808875    0.614092582    0.000000000
   6  C       6.00    5.320808875   -0.614092582    0.000000000
   7  O       8.00   -2.976537477    1.627280960    0.000000000
   8  O       8.00    2.976537477   -1.627280960    0.000000000
   9  C       6.00   -1.314233466   -0.320206722    0.000000000
  10  C       6.00    1.314233466    0.320206722    0.000000000
  11  H       1.00   -1.739818309   -4.397373606    0.000000000
  12  H       1.00    1.739818309    4.397373606    0.000000000
  13  H       1.00   -6.763430522   -3.215038299    0.000000000
  14  H       1.00    6.763430522    3.215038299    0.000000000
  15  H       1.00   -6.855880460    1.934460477    0.000000000
  16  H       1.00    6.855880460   -1.934460477    0.000000000

 Bond lengths in Bohr (Angstrom)

  1- 3  2.685821741   1- 9  2.567456951   1-11  2.026581416   2- 4  2.685821741   2-10  2.567456951
       ( 1.421275658)       ( 1.358639709)       ( 1.072420701)       ( 1.421275658)       ( 1.358639709)

  2-12  2.026581416   3- 5  2.549396851   3-13  2.027256588   4- 6  2.549396851   4-14  2.027256588
       ( 1.072420701)       ( 1.349082715)       ( 1.072777987)       ( 1.349082715)       ( 1.072777987)

  5- 7  2.553851812   5-15  2.024800274   6- 8  2.553851812   6-16  2.024800274   7- 9  2.560461462
       ( 1.351440179)       ( 1.071478162)       ( 1.351440179)       ( 1.071478162)       ( 1.354937855)

  8-10  2.560461462   9-10  2.705359087
       ( 1.354937855)       ( 1.431614376)

 Bond angles

  1- 3- 5  106.23391697   1- 3-13  127.36405031   1- 9- 7  109.95874721   1- 9-10  133.25144880

  2- 4- 6  106.23391697   2- 4-14  127.36405031   2-10- 8  109.95874721   2-10- 9  133.25144880

  3- 1- 9  106.18145271   3- 1-11  127.89430676   3- 5- 7  110.51691111   3- 5-15  133.55692955

  4- 2-10  106.18145271   4- 2-12  127.89430676   4- 6- 8  110.51691111   4- 6-16  133.55692955

  5- 3-13  126.40203272   5- 7- 9  107.10897200   6- 4-14  126.40203272   6- 8-10  107.10897200

  7- 5-15  115.92615933   7- 9-10  116.78980398   8- 6-16  115.92615933   8-10- 9  116.78980398

  9- 1-11  125.92424054  10- 2-12  125.92424054

 NUCLEAR CHARGE:                   70
 NUMBER OF PRIMITIVE AOS:         312
 NUMBER OF SYMMETRY AOS:          302
 NUMBER OF CONTRACTIONS:          170   (   62Ag  +   23Au  +   62Bu  +   23Bg  )
 NUMBER OF INNER CORE ORBITALS:     0   (    0Ag  +    0Au  +    0Bu  +    0Bg  )
 NUMBER OF OUTER CORE ORBITALS:    10   (    5Ag  +    0Au  +    5Bu  +    0Bg  )
 NUMBER OF VALENCE ORBITALS:       46   (   18Ag  +    5Au  +   18Bu  +    5Bg  )


 NUCLEAR REPULSION ENERGY  483.82626621

 Eigenvalues of metric

         1 0.468E-03 0.216E-02 0.500E-02 0.583E-02 0.125E-01 0.172E-01 0.189E-01 0.207E-01
         2 0.759E-01 0.107E+00 0.164E+00 0.171E+00 0.206E+00 0.267E+00 0.346E+00 0.363E+00
         3 0.421E-03 0.775E-03 0.326E-02 0.508E-02 0.967E-02 0.134E-01 0.179E-01 0.193E-01
         4 0.460E-01 0.905E-01 0.143E+00 0.169E+00 0.198E+00 0.247E+00 0.320E+00 0.366E+00


 Contracted 2-electron integrals neglected if value below      1.0D-11
 AO integral compression algorithm  1   Integral accuracy      1.0D-11

     136.053 MB (compressed) written to integral file ( 52.9%)


 NUMBER OF SORTED TWO-ELECTRON INTEGRALS:   28132533.     BUFFER LENGTH:  32768
 NUMBER OF SEGMENTS:   2  SEGMENT LENGTH:   15997308      RECORD LENGTH: 524288

 Memory used in sort:      16.55 MW

 SORT1 READ    32119760. AND WROTE    28007098. INTEGRALS IN     81 RECORDS. CPU TIME:     0.38 SEC, REAL TIME:     0.46 SEC
 SORT2 READ    28007098. AND WROTE    28132533. INTEGRALS IN    519 RECORDS. CPU TIME:     0.28 SEC, REAL TIME:     0.32 SEC

 FILE SIZES:   FILE 1:   167.0 MBYTE,  FILE 4:   339.8 MBYTE,   TOTAL:    506.8 MBYTE

 OPERATOR DM      FOR CENTER  0  COORDINATES:    0.000000    0.000000    0.000000


 **********************************************************************************************************************************
 DATASETS  * FILE   NREC   LENGTH (MB)   RECORD NAMES
              1      19      145.04       500      610      700      900      950      970     1000      129      960     1100   
                                          VAR    BASINP    GEOM    SYMINP    ZMAT    AOBASIS   BASIS     P2S    ABASIS      S 
                                         1400     1410     1200     1210     1080     1600     1650     1300     1700   
                                           T        V       H0       H01     AOSYM     SMH    MOLCAS    ERIS     OPER   

 PROGRAMS   *        TOTAL       INT
 CPU TIMES  *         3.69      3.60
 REAL TIME  *         4.43 SEC
 DISK USED  *       483.97 MB
 **********************************************************************************************************************************


 Program * Restricted Hartree-Fock

 Orbital guess generated from atomic densities. Full valence occupancy:   23   5  23   5

 Initial occupancy:  15   3  14   3

 NELEC=   70   SYM=1   MS2= 0   THRE=1.0D-08   THRD=3.2D-06   THRG=3.2D-06  HFMA2=F  DIIS_START=2   DIIS_MAX=10   DIIS_INCORE=F

 Level shifts:    0.00 (CLOSED)    0.00 (OPEN)    0.30 (GAP_MIN)

 ITER           ETOT              DE          GRAD        DDIFF     DIIS  NEXP   TIME(IT)  TIME(TOT)  DIAG
   1     -456.04260455    -456.04260455     0.00D+00     0.16D+00     0     0       0.05      0.10    start
   2     -456.12475985      -0.08215530     0.71D-02     0.16D-01     1     0       0.06      0.16    diag
   3     -456.14037557      -0.01561572     0.33D-02     0.64D-02     2     0       0.05      0.21    diag
   4     -456.14315466      -0.00277909     0.12D-02     0.25D-02     3     0       0.05      0.26    diag
   5     -456.14331954      -0.00016488     0.29D-03     0.58D-03     4     0       0.05      0.31    diag
   6     -456.14335250      -0.00003296     0.95D-04     0.22D-03     5     0       0.05      0.36    diag
   7     -456.14336158      -0.00000908     0.38D-04     0.14D-03     6     0       0.06      0.42    diag
   8     -456.14336218      -0.00000060     0.11D-04     0.37D-04     7     0       0.05      0.47    fixocc
   9     -456.14336223      -0.00000005     0.44D-05     0.10D-04     8     0       0.05      0.52    diag
  10     -456.14336223      -0.00000000     0.93D-06     0.27D-05     9     0       0.06      0.58    diag/orth
  11     -456.14336223      -0.00000000     0.32D-06     0.81D-06     0     0       0.05      0.63    diag

 Final occupancy:  15   3  14   3

 !RHF STATE 1.1 Energy               -456.143362230321
  RHF One-electron energy           -1580.081805512144
  RHF Two-electron energy             640.112177068303
  RHF Kinetic energy                  456.117308392765
  RHF Nuclear energy                  483.826266213519
  RHF Virial quotient                  -1.000057120914

 !RHF STATE 1.1 Dipole moment           0.00000000     0.00000000     0.00000000
 Dipole moment /Debye                   0.00000000     0.00000000     0.00000000

 Orbital energies:

           1.1          2.1          3.1          4.1          5.1          6.1          7.1          8.1          9.1         10.1
    -20.626975   -11.299132   -11.291730   -11.233713   -11.232684    -1.477302    -1.093147    -1.064147    -0.829508    -0.791147

          11.1         12.1         13.1         14.1         15.1         16.1         17.1
     -0.754446    -0.607793    -0.573790    -0.561906    -0.532353     0.205077     0.232364

           1.2          2.2          3.2          4.2          5.2
     -0.657318    -0.406553    -0.370844     0.109058     0.227765

           1.3          2.3          3.3          4.3          5.3          6.3          7.3          8.3          9.3         10.3
    -20.626972   -11.298231   -11.291730   -11.233715   -11.232685    -1.468670    -1.095175    -0.976542    -0.831116    -0.761488

          11.3         12.3         13.3         14.3         15.3         16.3
     -0.684716    -0.596357    -0.573520    -0.551136     0.205485     0.228830

           1.4          2.4          3.4          4.4          5.4
     -0.629340    -0.400325    -0.272438     0.195069     0.304575


 HOMO      3.4    -0.272438 =      -7.4134eV
 LUMO      4.2     0.109058 =       2.9676eV
 LUMO-HOMO         0.381497 =      10.3810eV

 Orbitals saved in record  2100.2


 **********************************************************************************************************************************
 DATASETS  * FILE   NREC   LENGTH (MB)   RECORD NAMES
              1      19      145.04       500      610      700      900      950      970     1000      129      960     1100   
                                          VAR    BASINP    GEOM    SYMINP    ZMAT    AOBASIS   BASIS     P2S    ABASIS      S 
                                         1400     1410     1200     1210     1080     1600     1650     1300     1700   
                                           T        V       H0       H01     AOSYM     SMH    MOLCAS    ERIS     OPER   

              2       4        0.79       700     1000      520     2100   
                                         GEOM     BASIS   MCVARS     RHF  

 PROGRAMS   *        TOTAL    HF-SCF       INT
 CPU TIMES  *         4.33      0.63      3.60
 REAL TIME  *         5.18 SEC
 DISK USED  *       483.97 MB
 **********************************************************************************************************************************


 PROGRAM * CCSD (Closed-shell coupled cluster)     Authors: C. Hampel, H.-J. Werner, 1991, M. Deegan, P.J. Knowles, 1992


 CORETYPE=SMALL

 Convergence thresholds:  THRVAR = 1.00D-08  THRDEN = 1.00D-06

 Number of closed-shell orbitals:  35 (  15   3  14   3 )
 Number of external orbitals:     135 (  47  20  48  20 )

 Molecular orbitals read from record     2100.2  Type=RHF/CANONICAL  

 Number of N-1 electron functions:              35
 Number of N-2 electron functions:             630
 Number of singly external CSFs:              1497
 Number of doubly external CSFs:           2993094
 Total number of CSFs:                     2994592

 Length of J-op  integral file:               0.00 MB
 Length of K-op  integral file:               0.66 MB
 Length of 3-ext integral record:             0.00 MB

 Integral transformation finished. Total CPU:   1.00 sec, npass=  1  Memory used:  14.54 MW

 Reference energy:                   -456.14336223

 MP2 singlet pair energy:              -0.83960473
 MP2 triplet pair energy:              -0.58311874
 MP2 correlation energy:               -1.42272347
 MP2 total energy:                   -457.56608570

 SCS-MP2 correlation energy:           -1.37035511   (PS=  1.200000  PT=  0.333333)
 SCS-MP2 total energy:               -457.51371734

 ITER.      SQ.NORM     CORR.ENERGY   TOTAL ENERGY   ENERGY CHANGE        DEN1      VAR(S)    VAR(P)  DIIS     TIME  TIME/IT
   1      1.48070753    -1.45565587  -457.59901810    -0.03293240     0.00819893  0.96D-02  0.10D-01  1  1    11.20     5.79
   2      1.51747111    -1.46039335  -457.60375558    -0.00473748    -0.03661054  0.18D-03  0.15D-02  2  2    17.68     6.22
   3      1.53248566    -1.46087839  -457.60424062    -0.00048503    -0.00719308  0.16D-03  0.10D-03  3  3    24.02     6.58
   4      1.53792998    -1.46075334  -457.60411557     0.00012505    -0.00187908  0.11D-04  0.17D-04  4  4    30.79     6.73
   5      1.54016895    -1.46079961  -457.60416184    -0.00004627    -0.00048389  0.39D-05  0.15D-05  5  5    37.07     6.70
   6      1.54072668    -1.46077825  -457.60414048     0.00002136    -0.00006405  0.72D-06  0.28D-06  6  6    43.65     6.76
   7      1.54089782    -1.46076925  -457.60413148     0.00000900    -0.00001087  0.18D-06  0.71D-07  6  2    50.09     6.76
   8      1.54096648    -1.46076728  -457.60412951     0.00000197    -0.00000404  0.32D-07  0.14D-07  6  1    56.12     6.70
   9      1.54098497    -1.46076564  -457.60412787     0.00000164     0.00000399  0.28D-08  0.25D-08  6  4    62.20     6.66
  10      1.54099215    -1.46076586  -457.60412809    -0.00000021    -0.00000107  0.31D-09  0.29D-09  6  3    69.42     6.78
  11      1.54099194    -1.46076597  -457.60412820    -0.00000012     0.00000047  0.55D-10  0.42D-10  6  5    75.92     6.79

 Norm of t1 vector:      0.13557120      S-energy:    -0.00000002      T1 diagnostic:  0.01145786
                                                                       D1 diagnostic:  0.05122711
                                                                       D2 diagnostic:  0.19617288 (internal)

 Doubles amplitudes (print threshold =  0.500E-01):

         I         J         SYM. A    SYM. B    A         B      T(IJ, AB)

        35        35         2         2         1         1     -0.06734110


 RESULTS
 =======

  Reference energy                   -456.143362230321

  Correlated core orbitals:             1.1       2.1       3.1       4.1       5.1       1.3       2.3       3.3       4.3       5.3
  Orbital energies:                   -20.6270  -11.2991  -11.2917  -11.2337  -11.2327  -20.6270  -11.2982  -11.2917  -11.2337  -11.2327

  CCSD core-core energy                -0.006194551031
  CCSD core-valence energy             -0.018759631362
  CCSD valence correlation energy      -1.435811790619

  CCSD singlet pair energy             -0.944907182844
  CCSD triplet pair energy             -0.515858771895
  CCSD correlation energy              -1.460765973012

 !CCSD total energy                  -457.604128203333

 Timing summary (sec):

 STEP                 CPU(USER)    SYS     CPU(TOT)    WALL
 Transformation          1.04      0.11      1.15      1.19
 CCSD iterations        75.05      2.44     77.49     74.83

 Program statistics:

 Available memory in ccsd:              3145723085
 Min. memory needed in ccsd:               7629103
 Max. memory used in ccsd:                10426451
 Max. memory used in cckext:              10307365 (11 integral passes)



 **********************************************************************************************************************************
 DATASETS  * FILE   NREC   LENGTH (MB)   RECORD NAMES
              1      20      288.90       500      610      700      900      950      970     1000      129      960     1100   
                                          VAR    BASINP    GEOM    SYMINP    ZMAT    AOBASIS   BASIS     P2S    ABASIS      S 
                                         1400     1410     1200     1210     1080     1600     1650     1300     1700     1380   
                                           T        V       H0       H01     AOSYM     SMH    MOLCAS    ERIS     OPER     JKOP   

              2       4        0.79       700     1000      520     2100   
                                         GEOM     BASIS   MCVARS     RHF  

 PROGRAMS   *        TOTAL      CCSD    HF-SCF       INT
 CPU TIMES  *        75.99     71.66      0.63      3.60
 REAL TIME  *        81.26 SEC
 DISK USED  *       770.66 MB
 **********************************************************************************************************************************

 Dump information in style XML to xml output                                                                      

 Orbitals will not be exported.

 **********************************************************************************************************************************

 CCSD/cc-pVDZ energy=   -457.604128203333

            CCSD          HF-SCF
   -457.60412820   -456.14336223
 **********************************************************************************************************************************
 Molpro calculation terminated
