
 Working directory              : /var/folders/2v/xbgp75_9785319ghcgb4zr4r0000gr/T//molpro.yyXL964Ghl/
 Global scratch directory       : /var/folders/2v/xbgp75_9785319ghcgb4zr4r0000gr/T//molpro.yyXL964Ghl/
 Wavefunction directory         : /Users/peterk/wfu/
 Main file repository           : /var/folders/2v/xbgp75_9785319ghcgb4zr4r0000gr/T//molpro.yyXL964Ghl/

 id        : peterk

 Nodes        nprocs
 pjk2022.local    1
 GA implementation: MPI file
 GA implementation (serial work in mppx): MPI file

 Using customized tuning parameters: mindgm=1; mindgv=20; mindgc=4; mindgr=1; noblas=0; minvec=7
 default implementation of scratch files=df  


 Variables initialized (1037), CPU time= 0.00 sec
 
 
 
 geometry={
 6
    H   -0.00632875311476     -0.04084783654691     -0.00818150755843
    N   0.99953758633452     -0.00230969538570     -0.00483617136550
    N   1.47739957561209      1.34271283967645      0.00556578747329
    H   0.71828264706118      2.00420913520683      0.00762829711197
    H   2.03340332052250      1.48238021094367     -0.82227125429861
    H   1.34770704304099     -0.45864761967431      0.82209606377530
 }
 basis=cc-pVTZ
 core,small
 
 
 hf; ccsd(t)
 
 
 
 {put,xml;noorbitals,nobasis}
 Commands initialized (841), CPU time= 0.01 sec, 716 directives.
 Default parameters read. Elapsed time= 0.06 sec

 Checking input...
 Passed
1


                                         ***  PROGRAM SYSTEM MOLPRO  ***
                                       Copyright, TTI GmbH Stuttgart, 2015
                                    Version 2023.1 linked Sat Jul 22 07:59:25 2023


 **********************************************************************************************************************************
 LABEL *                                                                                                                                                                 
  64 bit serial version                                                                  DATE: 02-Aug-23          TIME: 13:42:03  
 **********************************************************************************************************************************

 SHA1:             401d111a1dbfa49388eacdf0424f85138b2d30d0
 **********************************************************************************************************************************

 Memory per process:      3146 MW
 Total memory per node:   4194 MW
 Total GA space:          1049 MW

 GA preallocation disabled
 GA check enabled

 Geometry recognized as XYZ


 Variable memory set to 3145.7 MW

 SETTING BASIS          =    CC-PVTZ


 Recomputing integrals since basis changed


 Using spherical harmonics

 Library entry H      S cc-pVTZ              selected for orbital group  1
 Library entry H      P cc-pVTZ              selected for orbital group  1
 Library entry H      D cc-pVTZ              selected for orbital group  1
 Library entry N      S cc-pVTZ              selected for orbital group  2
 Library entry N      P cc-pVTZ              selected for orbital group  2
 Library entry N      D cc-pVTZ              selected for orbital group  2
 Library entry N      F cc-pVTZ              selected for orbital group  2


 PROGRAM * SEWARD (Integral evaluation for generally contracted gaussian basis sets)     Author: Roland Lindh, 1990

 Geometry written to block  1 of record 700


 Point group  C1  



 ATOMIC COORDINATES

 NR  ATOM    CHARGE       X              Y              Z

   1  H       1.00   -0.011959610   -0.077191224   -0.015460809
   2  N       7.00    1.888852289   -0.004364692   -0.009139039
   3  N       7.00    2.791880575    2.537359531    0.010517814
   4  H       1.00    1.357357483    3.787406362    0.014415392
   5  H       1.00    3.842575377    2.801292611   -1.553867471
   6  H       1.00    2.546797208   -0.866718389    1.553536409

 Bond lengths in Bohr (Angstrom)

 1-2  1.902217008  2-3  2.697444809  2-6  1.902235519  3-4  1.902758201  3-5  1.902871924
     ( 1.006609891)     ( 1.427426321)     ( 1.006619686)     ( 1.006896278)     ( 1.006956457)

 Bond angles

  1-2-3  111.75408110   1-2-6  109.32938766   2-3-4  111.51004522   2-3-5  108.03228513

  3-2-6  107.78157594   4-3-5  109.07747806

 NUCLEAR CHARGE:                   18
 NUMBER OF PRIMITIVE AOS:         162
 NUMBER OF SYMMETRY AOS:          148
 NUMBER OF CONTRACTIONS:          116   (  116A   )
 NUMBER OF INNER CORE ORBITALS:     0   (    0A   )
 NUMBER OF OUTER CORE ORBITALS:     2   (    2A   )
 NUMBER OF VALENCE ORBITALS:       12   (   12A   )


 NUCLEAR REPULSION ENERGY   41.75726498

 Eigenvalues of metric

         1 0.105E-02 0.191E-02 0.278E-02 0.318E-02 0.387E-02 0.467E-02 0.641E-02 0.792E-02


 Contracted 2-electron integrals neglected if value below      1.0D-11
 AO integral compression algorithm  1   Integral accuracy      1.0D-11

     112.198 MB (compressed) written to integral file ( 52.4%)


 NUMBER OF SORTED TWO-ELECTRON INTEGRALS:   23028291.     BUFFER LENGTH:  32768
 NUMBER OF SEGMENTS:   2  SEGMENT LENGTH:   15997996      RECORD LENGTH: 524288

 Memory used in sort:      16.56 MW

 SORT1 READ    26749923. AND WROTE    22798594. INTEGRALS IN     67 RECORDS. CPU TIME:     0.16 SEC, REAL TIME:     0.22 SEC
 SORT2 READ    22798594. AND WROTE    23028291. INTEGRALS IN    428 RECORDS. CPU TIME:     0.19 SEC, REAL TIME:     0.23 SEC

 FILE SIZES:   FILE 1:   142.8 MBYTE,  FILE 4:   281.1 MBYTE,   TOTAL:    423.9 MBYTE

 OPERATOR DM      FOR CENTER  0  COORDINATES:    0.000000    0.000000    0.000000


 **********************************************************************************************************************************
 DATASETS  * FILE   NREC   LENGTH (MB)   RECORD NAMES
              1      19      122.98       500      610      700      900      950      970     1000      129      960     1100   
                                          VAR    BASINP    GEOM    SYMINP    ZMAT    AOBASIS   BASIS     P2S    ABASIS      S 
                                         1400     1410     1200     1210     1080     1600     1650     1300     1700   
                                           T        V       H0       H01     AOSYM     SMH    MOLCAS    ERIS     OPER   

 PROGRAMS   *        TOTAL       INT
 CPU TIMES  *         1.16      1.07
 REAL TIME  *         1.89 SEC
 DISK USED  *       404.65 MB
 **********************************************************************************************************************************


 Program * Restricted Hartree-Fock

 Orbital guess generated from atomic densities. Full valence occupancy:   14

 Initial occupancy:   9

 NELEC=   18   SYM=1   MS2= 0   THRE=1.0D-08   THRD=3.2D-06   THRG=3.2D-06  HFMA2=F  DIIS_START=2   DIIS_MAX=10   DIIS_INCORE=F

 Level shifts:    0.00 (CLOSED)    0.00 (OPEN)    0.30 (GAP_MIN)

 ITER           ETOT              DE          GRAD        DDIFF     DIIS  NEXP   TIME(IT)  TIME(TOT)  DIAG
   1     -111.19618239    -111.19618239     0.00D+00     0.69D-01     0     0       0.09      0.17    start
   2     -111.21981010      -0.02362771     0.51D-02     0.70D-02     1     0       0.09      0.26    diag
   3     -111.22176305      -0.00195295     0.16D-02     0.17D-02     2     0       0.09      0.35    diag
   4     -111.22205780      -0.00029475     0.53D-03     0.57D-03     3     0       0.10      0.45    diag
   5     -111.22208027      -0.00002247     0.12D-03     0.15D-03     4     0       0.09      0.54    diag
   6     -111.22208190      -0.00000163     0.24D-04     0.44D-04     5     0       0.10      0.64    diag
   7     -111.22208208      -0.00000019     0.68D-05     0.17D-04     6     0       0.09      0.73    diag
   8     -111.22208211      -0.00000002     0.22D-05     0.63D-05     7     0       0.09      0.82    fixocc
   9     -111.22208211      -0.00000000     0.45D-06     0.13D-05     8     0       0.09      0.91    diag
  10     -111.22208211      -0.00000000     0.86D-07     0.13D-06     0     0       0.10      1.01    diag/orth

 Final occupancy:   9

 !RHF STATE 1.1 Energy               -111.222082105985
  RHF One-electron energy            -233.688963925528
  RHF Two-electron energy              80.709616834556
  RHF Kinetic energy                  111.111170541660
  RHF Nuclear energy                   41.757264984987
  RHF Virial quotient                  -1.000998203545

 !RHF STATE 1.1 Dipole moment          -0.52482912     0.18578266    -0.00128412
 Dipole moment /Debye                  -1.33398257     0.47221242    -0.00326391

 Orbital energies:

           1.1          2.1          3.1          4.1          5.1          6.1          7.1          8.1          9.1         10.1
    -15.558880   -15.558382    -1.251219    -1.006726    -0.693319    -0.636280    -0.608754    -0.454085    -0.367220     0.143340

          11.1
      0.169880


 HOMO      9.1    -0.367220 =      -9.9926eV
 LUMO     10.1     0.143340 =       3.9005eV
 LUMO-HOMO         0.510560 =      13.8930eV

 Orbitals saved in record  2100.2


 **********************************************************************************************************************************
 DATASETS  * FILE   NREC   LENGTH (MB)   RECORD NAMES
              1      19      122.98       500      610      700      900      950      970     1000      129      960     1100   
                                          VAR    BASINP    GEOM    SYMINP    ZMAT    AOBASIS   BASIS     P2S    ABASIS      S 
                                         1400     1410     1200     1210     1080     1600     1650     1300     1700   
                                           T        V       H0       H01     AOSYM     SMH    MOLCAS    ERIS     OPER   

              2       4        0.68       700     1000      520     2100   
                                         GEOM     BASIS   MCVARS     RHF  

 PROGRAMS   *        TOTAL    HF-SCF       INT
 CPU TIMES  *         2.17      1.01      1.07
 REAL TIME  *         3.02 SEC
 DISK USED  *       404.65 MB
 **********************************************************************************************************************************


 PROGRAM * CCSD (Closed-shell coupled cluster)     Authors: C. Hampel, H.-J. Werner, 1991, M. Deegan, P.J. Knowles, 1992


 CORETYPE=SMALL

 Convergence thresholds:  THRVAR = 1.00D-08  THRDEN = 1.00D-06

 CCSD(T)     terms to be evaluated (factor= 1.000)


 Number of closed-shell orbitals:   9 (   9 )
 Number of external orbitals:     107 ( 107 )

 Molecular orbitals read from record     2100.2  Type=RHF/CANONICAL  

 Number of N-1 electron functions:               9
 Number of N-2 electron functions:              45
 Number of singly external CSFs:               963
 Number of doubly external CSFs:            464166
 Total number of CSFs:                      465130

 Length of J-op  integral file:               0.00 MB
 Length of K-op  integral file:               0.99 MB
 Length of 3-ext integral record:             0.00 MB

 Memory could be reduced to 15.45 Mwords without degradation in triples

 Integral transformation finished. Total CPU:   0.70 sec, npass=  1  Memory used:   9.18 MW

 Reference energy:                   -111.22208211

 MP2 singlet pair energy:              -0.30572877
 MP2 triplet pair energy:              -0.16203126
 MP2 correlation energy:               -0.46776003
 MP2 total energy:                   -111.68984213

 SCS-MP2 correlation energy:           -0.46769397   (PS=  1.200000  PT=  0.333333)
 SCS-MP2 total energy:               -111.68977608

 ITER.      SQ.NORM     CORR.ENERGY   TOTAL ENERGY   ENERGY CHANGE        DEN1      VAR(S)    VAR(P)  DIIS     TIME  TIME/IT
   1      1.12533389    -0.48470896  -111.70679106    -0.01694893    -0.00701396  0.90D-03  0.18D-02  1  1     3.69     0.72
   2      1.13267250    -0.48598622  -111.70806832    -0.00127726    -0.00918017  0.22D-04  0.19D-03  2  2     4.27     0.66
   3      1.13507877    -0.48607108  -111.70815319    -0.00008487    -0.00172840  0.34D-05  0.11D-04  3  3     4.79     0.63
   4      1.13574573    -0.48609328  -111.70817539    -0.00002220    -0.00037526  0.39D-06  0.64D-06  4  4     5.47     0.65
   5      1.13583763    -0.48609531  -111.70817742    -0.00000203    -0.00003285  0.92D-07  0.51D-07  5  5     6.04     0.64
   6      1.13585146    -0.48609464  -111.70817675     0.00000067    -0.00000339  0.24D-07  0.53D-08  6  6     6.56     0.63
   7      1.13585483    -0.48609461  -111.70817672     0.00000003    -0.00000106  0.67D-08  0.12D-08  6  1     7.08     0.62

 Norm of t1 vector:      0.03754079      S-energy:    -0.00000000      T1 diagnostic:  0.00625680
                                                                       D1 diagnostic:  0.01325351
                                                                       D2 diagnostic:  0.14327281 (internal)


 Total CPU time for triples:      7.05 sec


 RESULTS
 =======

  Reference energy                   -111.222082105985

  Correlated core orbitals:             1.1       2.1
  Orbital energies:                   -15.5589  -15.5584

  CCSD core-core energy                -0.016204269043
  CCSD core-valence energy             -0.013733060003
  CCSD valence correlation energy      -0.456157282399

  CCSD singlet pair energy             -0.338821974571
  CCSD triplet pair energy             -0.147272634461
  CCSD correlation energy              -0.486094611445

  Triples (T) contribution             -0.016518200007
  Total correlation energy             -0.502612811452

  CCSD total energy                  -111.708176717430
  CCSD[T] energy                     -111.725043583572
  CCSD-T energy                      -111.724491423179
 !CCSD(T) total energy               -111.724694917438

 Timing summary (sec):

 STEP                 CPU(USER)    SYS     CPU(TOT)    WALL
 Transformation          0.73      0.09      0.82      0.83
 CCSD iterations         6.36      0.21      6.57      4.33
 Triples                 7.05      0.25      7.30      7.35

 Program statistics:

 Available memory in ccsd:              3145727667
 Min. memory needed in ccsd:               1356957
 Max. memory used in ccsd:                 1752021
 Max. memory used in cckext:               1336867 ( 7 integral passes)



 **********************************************************************************************************************************
 DATASETS  * FILE   NREC   LENGTH (MB)   RECORD NAMES
              1      20      172.59       500      610      700      900      950      970     1000      129      960     1100   
                                          VAR    BASINP    GEOM    SYMINP    ZMAT    AOBASIS   BASIS     P2S    ABASIS      S 
                                         1400     1410     1200     1210     1080     1600     1650     1300     1700     1380   
                                           T        V       H0       H01     AOSYM     SMH    MOLCAS    ERIS     OPER     JKOP   

              2       4        0.68       700     1000      520     2100   
                                         GEOM     BASIS   MCVARS     RHF  

 PROGRAMS   *        TOTAL   CCSD(T)    HF-SCF       INT
 CPU TIMES  *        14.06     11.89      1.01      1.07
 REAL TIME  *        15.58 SEC
 DISK USED  *       404.65 MB
 **********************************************************************************************************************************

 Dump information in style XML to xml output                                                                      

 Orbitals will not be exported.

 **********************************************************************************************************************************

 CCSD(T)/cc-pVTZ energy=   -111.724694917438

         CCSD(T)          HF-SCF
   -111.72469492   -111.22208211
 **********************************************************************************************************************************
 Molpro calculation terminated
