
 Working directory              : /var/folders/2v/xbgp75_9785319ghcgb4zr4r0000gr/T//molpro.N3oy49L7co/
 Global scratch directory       : /var/folders/2v/xbgp75_9785319ghcgb4zr4r0000gr/T//molpro.N3oy49L7co/
 Wavefunction directory         : /Users/peterk/wfu/
 Main file repository           : /var/folders/2v/xbgp75_9785319ghcgb4zr4r0000gr/T//molpro.N3oy49L7co/

 id        : peterk

 Nodes        nprocs
 pjk2022.local    1
 GA implementation: MPI file
 GA implementation (serial work in mppx): MPI file

 Using customized tuning parameters: mindgm=1; mindgv=20; mindgc=4; mindgr=1; noblas=0; minvec=7
 default implementation of scratch files=df  


 Variables initialized (1037), CPU time= 0.00 sec
 
 
 
 geometry={
 9
    C   0.04548913916044     -0.00299027492515      1.52266678592459
    C   -0.07601762799968      0.25375057587391      0.05812551875722
    N   -1.35175070805215     -0.14527860763237     -0.49039875420599
    O   0.79472683637109      0.74720047659024     -0.59907990781975
    H   -1.75223610939597      0.67270959086769     -0.93574503459312
    H   -1.16429206855293     -0.77905213131240     -1.25888216774949
    H   -0.71523799881351      0.56821438090423      2.04876094457605
    H   -0.16715148550959     -1.04897329345055      1.73144912327409
    H   1.03105502279229      0.27578428308441      1.87624849183640
 }
 basis=cc-pVTZ
 core,small
 
 
 hf; papt;mp3
 
 
 
 {put,xml;noorbitals,nobasis}
 Commands initialized (841), CPU time= 0.00 sec, 716 directives.
 Default parameters read. Elapsed time= 0.05 sec

 Checking input...
 Passed
1


                                         ***  PROGRAM SYSTEM MOLPRO  ***
                                       Copyright, TTI GmbH Stuttgart, 2015
                                    Version 2023.1 linked Sat Jul 22 07:59:25 2023


 **********************************************************************************************************************************
 LABEL *                                                                                                                                                                 
  64 bit serial version                                                                  DATE: 01-Aug-23          TIME: 22:33:37  
 **********************************************************************************************************************************

 SHA1:             401d111a1dbfa49388eacdf0424f85138b2d30d0
 **********************************************************************************************************************************

 Memory per process:      3146 MW
 Total memory per node:   4194 MW
 Total GA space:          1049 MW

 GA preallocation disabled
 GA check enabled

 Geometry recognized as XYZ


 Variable memory set to 3145.7 MW

 SETTING BASIS          =    CC-PVTZ


 Recomputing integrals since basis changed


 Using spherical harmonics

 Library entry C      S cc-pVTZ              selected for orbital group  1
 Library entry C      P cc-pVTZ              selected for orbital group  1
 Library entry C      D cc-pVTZ              selected for orbital group  1
 Library entry C      F cc-pVTZ              selected for orbital group  1
 Library entry N      S cc-pVTZ              selected for orbital group  2
 Library entry N      P cc-pVTZ              selected for orbital group  2
 Library entry N      D cc-pVTZ              selected for orbital group  2
 Library entry N      F cc-pVTZ              selected for orbital group  2
 Library entry O      S cc-pVTZ              selected for orbital group  3
 Library entry O      P cc-pVTZ              selected for orbital group  3
 Library entry O      D cc-pVTZ              selected for orbital group  3
 Library entry O      F cc-pVTZ              selected for orbital group  3
 Library entry H      S cc-pVTZ              selected for orbital group  4
 Library entry H      P cc-pVTZ              selected for orbital group  4
 Library entry H      D cc-pVTZ              selected for orbital group  4


 PROGRAM * SEWARD (Integral evaluation for generally contracted gaussian basis sets)     Author: Roland Lindh, 1990

 Geometry written to block  1 of record 700


 Point group  C1  



 ATOMIC COORDINATES

 NR  ATOM    CHARGE       X              Y              Z

   1  C       6.00    0.085962015   -0.005650801    2.877423204
   2  C       6.00   -0.143652498    0.479519092    0.109841311
   3  N       7.00   -2.554438627   -0.274536780   -0.926719337
   4  O       8.00    1.501816065    1.412004261   -1.132096953
   5  H       1.00   -3.311246352    1.271236888   -1.768301838
   6  H       1.00   -2.200193139   -1.472195165   -2.378942520
   7  H       1.00   -1.351603932    1.073769560    3.871597080
   8  H       1.00   -0.315870529   -1.982272237    3.271964642
   9  H       1.00    1.948411612    0.521156765    3.545595791

 Bond lengths in Bohr (Angstrom)

 1-2  2.819152742  1-7  2.054294492  1-8  2.055277266  1-9  2.047608195  2-3  2.730375066
     ( 1.491831385)     ( 1.087085830)     ( 1.087605891)     ( 1.083547594)     ( 1.444852262)

 2-4  2.262632544  3-5  1.915838008  3-6  1.915418400
     ( 1.197333579)     ( 1.013817814)     ( 1.013595766)

 Bond angles

  1-2-3  113.39585295   1-2-4  123.40431362   2-1-7  109.12753171   2-1-8  109.75755874

  2-1-9  110.49679386   2-3-5  107.02141433   2-3-6  107.29075566   3-2-4  123.19910069

  5-3-6  104.15251312   7-1-8  105.99888522   7-1-9  110.08405731   8-1-9  111.26146817

 NUCLEAR CHARGE:                   32
 NUMBER OF PRIMITIVE AOS:         273
 NUMBER OF SYMMETRY AOS:          248
 NUMBER OF CONTRACTIONS:          190   (  190A   )
 NUMBER OF INNER CORE ORBITALS:     0   (    0A   )
 NUMBER OF OUTER CORE ORBITALS:     4   (    4A   )
 NUMBER OF VALENCE ORBITALS:       21   (   21A   )


 NUCLEAR REPULSION ENERGY  121.33807038


 Eigenvalues of metric

         1 0.944E-03 0.103E-02 0.138E-02 0.156E-02 0.174E-02 0.212E-02 0.218E-02 0.299E-02


 Contracted 2-electron integrals neglected if value below      1.0D-11
 AO integral compression algorithm  1   Integral accuracy      1.0D-11

     657.981 MB (compressed) written to integral file ( 45.5%)


 NUMBER OF SORTED TWO-ELECTRON INTEGRALS:  164629585.     BUFFER LENGTH:  32768
 NUMBER OF SEGMENTS:  11  SEGMENT LENGTH:   15999503      RECORD LENGTH: 524288

 Memory used in sort:      16.56 MW

 SORT1 READ   180925491. AND WROTE   154126401. INTEGRALS IN    447 RECORDS. CPU TIME:     1.17 SEC, REAL TIME:     1.52 SEC
 SORT2 READ   154126401. AND WROTE   164629585. INTEGRALS IN   2510 RECORDS. CPU TIME:     0.94 SEC, REAL TIME:     1.17 SEC

 FILE SIZES:   FILE 1:   689.5 MBYTE,  FILE 4:  1874.9 MBYTE,   TOTAL:   2564.4 MBYTE

 OPERATOR DM      FOR CENTER  0  COORDINATES:    0.000000    0.000000    0.000000


 **********************************************************************************************************************************
 DATASETS  * FILE   NREC   LENGTH (MB)   RECORD NAMES
              1      19      600.57       500      610      700      900      950      970     1000      129      960     1100   
                                          VAR    BASINP    GEOM    SYMINP    ZMAT    AOBASIS   BASIS     P2S    ABASIS      S 
                                         1400     1410     1200     1210     1080     1600     1650     1300     1700   
                                           T        V       H0       H01     AOSYM     SMH    MOLCAS    ERIS     OPER   

 PROGRAMS   *        TOTAL       INT
 CPU TIMES  *         5.92      5.83
 REAL TIME  *         7.30 SEC
 DISK USED  *         2.39 GB
 **********************************************************************************************************************************


 Program * Restricted Hartree-Fock

 Orbital guess generated from atomic densities. Full valence occupancy:   25

 Initial occupancy:  16

 NELEC=   32   SYM=1   MS2= 0   THRE=1.0D-08   THRD=3.2D-06   THRG=3.2D-06  HFMA2=F  DIIS_START=2   DIIS_MAX=10   DIIS_INCORE=F

 Level shifts:    0.00 (CLOSED)    0.00 (OPEN)    0.30 (GAP_MIN)

 ITER           ETOT              DE          GRAD        DDIFF     DIIS  NEXP   TIME(IT)  TIME(TOT)  DIAG
   1     -207.93869087    -207.93869087     0.00D+00     0.56D-01     0     0       0.64      1.24    start
   2     -208.00330769      -0.06461682     0.60D-02     0.87D-02     1     0       0.64      1.88    diag
   3     -208.03553963      -0.03223194     0.42D-02     0.33D-02     2     0       0.62      2.50    diag
   4     -208.03738078      -0.00184116     0.67D-03     0.82D-03     3     0       0.62      3.12    diag
   5     -208.03768225      -0.00030146     0.26D-03     0.34D-03     4     0       0.62      3.74    diag
   6     -208.03771393      -0.00003168     0.72D-04     0.12D-03     5     0       0.63      4.37    diag
   7     -208.03771898      -0.00000506     0.29D-04     0.50D-04     6     0       0.63      5.00    diag
   8     -208.03771998      -0.00000100     0.13D-04     0.23D-04     7     0       0.64      5.64    fixocc
   9     -208.03772008      -0.00000010     0.35D-05     0.84D-05     8     0       0.63      6.27    diag
  10     -208.03772008      -0.00000000     0.63D-06     0.14D-05     9     0       0.65      6.92    diag/orth
  11     -208.03772009      -0.00000000     0.15D-06     0.22D-06     0     0       0.65      7.57    diag

 Final occupancy:  16

 !RHF STATE 1.1 Energy               -208.037720085109
  RHF One-electron energy            -523.527753460854
  RHF Two-electron energy             194.151962999656
  RHF Kinetic energy                  207.840348111223
  RHF Nuclear energy                  121.338070376089
  RHF Virial quotient                  -1.000949632618

 !RHF STATE 1.1 Dipole moment          -0.59330593    -0.28844785     0.27852913
 Dipole moment /Debye                  -1.50803326    -0.73316131     0.70795044

 Orbital energies:

           1.1          2.1          3.1          4.1          5.1          6.1          7.1          8.1          9.1         10.1
    -20.549773   -15.561515   -11.356663   -11.232120    -1.409959    -1.192007    -1.010854    -0.768978    -0.681182    -0.671887

          11.1         12.1         13.1         14.1         15.1         16.1         17.1         18.1
     -0.641740    -0.586029    -0.561863    -0.500502    -0.464483    -0.422340     0.130138     0.148997


 HOMO     16.1    -0.422340 =     -11.4924eV
 LUMO     17.1     0.130138 =       3.5412eV
 LUMO-HOMO         0.552478 =      15.0337eV

 Orbitals saved in record  2100.2


 **********************************************************************************************************************************
 DATASETS  * FILE   NREC   LENGTH (MB)   RECORD NAMES
              1      19      600.57       500      610      700      900      950      970     1000      129      960     1100   
                                          VAR    BASINP    GEOM    SYMINP    ZMAT    AOBASIS   BASIS     P2S    ABASIS      S 
                                         1400     1410     1200     1210     1080     1600     1650     1300     1700   
                                           T        V       H0       H01     AOSYM     SMH    MOLCAS    ERIS     OPER   

              2       4        1.09       700     1000      520     2100   
                                         GEOM     BASIS   MCVARS     RHF  

 PROGRAMS   *        TOTAL    HF-SCF       INT
 CPU TIMES  *        13.49      7.57      5.83
 REAL TIME  *        15.52 SEC
 DISK USED  *         2.39 GB
 **********************************************************************************************************************************


 PROGRAM * PAPT (Closed-shell)     Authors: C. Hampel, H.-J. Werner, 1991, P.J. Knowles, 2021


 CORETYPE=SMALL

 Convergence thresholds:  THRVAR = 1.00D-08  THRDEN = 1.00D-06

 Number of closed-shell orbitals:  16 (  16 )
 Number of external orbitals:     174 ( 174 )

 Molecular orbitals read from record     2100.2  Type=RHF/CANONICAL  

 Number of N-1 electron functions:              16
 Number of N-2 electron functions:             136
 Number of singly external CSFs:              2784
 Number of doubly external CSFs:           3876720
 Total number of CSFs:                     3879505

 Length of J-op  integral file:               0.00 MB
 Length of K-op  integral file:               2.54 MB

 Integral transformation finished. Total CPU:   1.60 sec, npass=  1  Memory used:   8.83 MW

 Reference energy:                   -208.03772009

                        CORR.ENERGY   TOTAL ENERGY   ENERGY CHANGE
 MP2:                   -0.83361527  -208.87133536    -0.83361527

 SCS-MP2 correlation energy:           -0.82772333   (PS=  1.200000  PT=  0.333333)
 SCS-MP2 total energy:               -208.86544342
 Iteration:   1     0.2542D+00
 Iteration:   2     0.7390D+01
 Iteration:   3     0.8753D-01
 Iteration:   4     0.2561D+00
 Iteration:   5     0.3573D-01
 Iteration:   6     0.3932D-01
 Iteration:   7     0.2914D-01
 Iteration:   8     0.1400D-01
 Iteration:   9     0.3639D-01
 Iteration:  10     0.4549D-02
 Iteration:  11     0.1171D-01
 Iteration:  12     0.1642D-02
 Iteration:  13     0.3119D-02
 Iteration:  14     0.1249D-02
 Iteration:  15     0.1290D-02
 Iteration:  16     0.8096D-03
 Iteration:  17     0.5362D-03
 Iteration:  18     0.3483D-02
 Iteration:  19     0.2040D-03
 Iteration:  20     0.3846D-03
 Iteration:  21     0.1499D-03
 Iteration:  22     0.7912D-04
 PAPT operator written to  7000.1
 PAPT orbitals and eigenvalues written to  7000.2

 MP3(D):                -0.85202703  -208.88974712    -0.01841176



 RESULTS
 =======

  Reference energy                   -208.037720085109

  Correlated core orbitals:             1.1       2.1       3.1       4.1
  Orbital energies:                   -20.5498  -15.5615  -11.3567  -11.2321

  MP3 core-core energy                 -0.034876871216
  MP3 core-valence energy              -0.026260356444
  MP3 valence correlation energy       -0.790889803246

  MP3 singlet pair energy              -0.575704352054
  MP3 triplet pair energy              -0.276322678852
  MP3 correlation energy               -0.852027030906

 !MP3 total energy                   -208.889747116015

 Timing summary (sec):

 STEP                 CPU(USER)    SYS     CPU(TOT)    WALL
 Transformation          1.69      0.17      1.86      2.07
 CCSD iterations        31.86      0.25     32.11     18.70

 Program statistics:

 Available memory in ccsd:              3145726960
 Min. memory needed in ccsd:               9650043
 Max. memory used in ccsd:                13192763
 Max. memory used in cckext:              10223914 ( 1 integral passes)



 **********************************************************************************************************************************
 DATASETS  * FILE   NREC   LENGTH (MB)   RECORD NAMES
              1      21      657.55       500      610      700      900      950      970     1000      129      960     1100   
                                          VAR    BASINP    GEOM    SYMINP    ZMAT    AOBASIS   BASIS     P2S    ABASIS      S 
                                         1400     1410     1200     1210     1080     1600     1650     1300     1700     1380   
                                           T        V       H0       H01     AOSYM     SMH    MOLCAS    ERIS     OPER     JKOP   
                                         7000   
                                        PAPT AO    

              2       5        2.02       700     1000      520     2100     7000   
                                         GEOM     BASIS   MCVARS     RHF     PAPT   

 PROGRAMS   *        TOTAL      PAPT    HF-SCF       INT
 CPU TIMES  *        33.47     19.98      7.57      5.83
 REAL TIME  *        36.34 SEC
 DISK USED  *         2.39 GB
 **********************************************************************************************************************************


 PROGRAM * MP3 (Closed-shell)     Authors: C. Hampel, H.-J. Werner, 1991, M. Deegan, P.J. Knowles, 1992


 CORETYPE=SMALL

 Convergence thresholds:  THRVAR = 1.00D-08  THRDEN = 1.00D-06

 Number of closed-shell orbitals:  16 (  16 )
 Number of external orbitals:     174 ( 174 )

 Molecular orbitals read from record     7000.2  Type=PAPT/CANONICAL (state 1.1)

 Number of N-1 electron functions:              16
 Number of N-2 electron functions:             136
 Number of singly external CSFs:              2784
 Number of doubly external CSFs:           3876720
 Total number of CSFs:                     3879505

 Length of J-op  integral file:               0.00 MB
 Length of K-op  integral file:               2.54 MB

 Integral transformation finished. Total CPU:   1.49 sec, npass=  1  Memory used:   8.83 MW
 Orbital energies read from record       7000.2  Type=PAPT/CANONICAL (state 1.1)

 Reference energy:                   -208.03772009

                        CORR.ENERGY   TOTAL ENERGY   ENERGY CHANGE
 MP2:                   -0.85922555  -208.89694563    -0.85922555

 SCS-MP2 correlation energy:           -0.85697560   (PS=  1.200000  PT=  0.333333)
 SCS-MP2 total energy:               -208.89469568

 MP3(D):                -0.85945649  -208.89717657    -0.00023094



 RESULTS
 =======

  Reference energy                   -208.037720085109

  Correlated core orbitals:             1.1       2.1       3.1       4.1
  Orbital energies:                   -20.0403  -14.9645  -10.8376  -10.6628

  MP3 core-core energy                 -0.035070789728
  MP3 core-valence energy              -0.026122122303
  MP3 valence correlation energy       -0.798263577560

  MP3 singlet pair energy              -0.582198976719
  MP3 triplet pair energy              -0.277257512871
  MP3 correlation energy               -0.859456489590

 !MP3 total energy                   -208.897176574700

 Timing summary (sec):

 STEP                 CPU(USER)    SYS     CPU(TOT)    WALL
 Transformation          2.22      0.22      2.44      2.40
 CCSD iterations        39.47      0.13     39.60      6.00

 Program statistics:

 Available memory in ccsd:              3145726960
 Min. memory needed in ccsd:               9650043
 Max. memory used in ccsd:                13192763
 Max. memory used in cckext:              10223914 ( 1 integral passes)



 **********************************************************************************************************************************
 DATASETS  * FILE   NREC   LENGTH (MB)   RECORD NAMES
              1      21      657.55       500      610      700      900      950      970     1000      129      960     1100   
                                          VAR    BASINP    GEOM    SYMINP    ZMAT    AOBASIS   BASIS     P2S    ABASIS      S 
                                         1400     1410     1200     1210     1080     1600     1650     1300     1700     1380   
                                           T        V       H0       H01     AOSYM     SMH    MOLCAS    ERIS     OPER     JKOP   
                                         7000   
                                        PAPT AO    

              2       5        2.02       700     1000      520     2100     7000   
                                         GEOM     BASIS   MCVARS     RHF     PAPT   

 PROGRAMS   *        TOTAL       MP3      PAPT    HF-SCF       INT
 CPU TIMES  *        41.61      8.14     19.98      7.57      5.83
 REAL TIME  *        44.78 SEC
 DISK USED  *         2.39 GB
 **********************************************************************************************************************************

 Dump information in style XML to xml output                                                                      

 Orbitals will not be exported.

 **********************************************************************************************************************************

 MP3/cc-pVTZ energy=   -208.897176574700

             MP3            PAPT          HF-SCF
   -208.89717657   -208.88974712   -208.03772009
 **********************************************************************************************************************************
 Molpro calculation terminated
