
 Working directory              : /var/folders/2v/xbgp75_9785319ghcgb4zr4r0000gr/T//molpro.tNynV237UQ/
 Global scratch directory       : /var/folders/2v/xbgp75_9785319ghcgb4zr4r0000gr/T//molpro.tNynV237UQ/
 Wavefunction directory         : /Users/peterk/wfu/
 Main file repository           : /var/folders/2v/xbgp75_9785319ghcgb4zr4r0000gr/T//molpro.tNynV237UQ/

 id        : peterk

 Nodes        nprocs
 pjk2022.local    1
 GA implementation: MPI file
 GA implementation (serial work in mppx): MPI file

 Using customized tuning parameters: mindgm=1; mindgv=20; mindgc=4; mindgr=1; noblas=0; minvec=7
 default implementation of scratch files=df  


 Variables initialized (1037), CPU time= 0.00 sec
 
 
 
 geometry={
 16
  C    -1.4452769   -0.8945789   -0.6530359
  C    -2.8286860   -0.8908769   -0.3684307
  C    -3.1375070   -0.1063297    0.6981435
  S    -1.7527144    0.6275104    1.3600308
  C    -0.7193656   -0.1162480    0.2025179
  C     0.7193656    0.1162480    0.2025179
  S     1.7527144   -0.6275104    1.3600308
  C     3.1375070    0.1063297    0.6981435
  C     2.8286860    0.8908769   -0.3684307
  C     1.4452769    0.8945789   -0.6530359
  H    -0.9873115   -1.4593053   -1.4471042
  H    -3.5595255   -1.4521636   -0.9249949
  H    -4.1032541    0.0746008    1.1328736
  H     4.1032541   -0.0746008    1.1328736
  H     3.5595255    1.4521636   -0.9249949
  H     0.9873115    1.4593053   -1.4471042
 }
 basis=cc-pVDZ
 core,small
 
 
 hf; papt;mp4
 
 
 
 {put,xml;noorbitals,nobasis}
 Commands initialized (841), CPU time= 0.01 sec, 716 directives.
 Default parameters read. Elapsed time= 0.06 sec

 Checking input...
 Passed
1


                                         ***  PROGRAM SYSTEM MOLPRO  ***
                                       Copyright, TTI GmbH Stuttgart, 2015
                                    Version 2023.1 linked Sat Jul 22 07:59:25 2023


 **********************************************************************************************************************************
 LABEL *                                                                                                                                                                 
  64 bit serial version                                                                  DATE: 01-Aug-23          TIME: 22:54:58  
 **********************************************************************************************************************************

 SHA1:             401d111a1dbfa49388eacdf0424f85138b2d30d0
 **********************************************************************************************************************************

 Memory per process:      3146 MW
 Total memory per node:   4194 MW
 Total GA space:          1049 MW

 GA preallocation disabled
 GA check enabled

 Geometry recognized as XYZ


 Variable memory set to 3145.7 MW

 SETTING BASIS          =    CC-PVDZ


 Recomputing integrals since basis changed


 Using spherical harmonics

 Library entry C      S cc-pVDZ              selected for orbital group  1
 Library entry C      P cc-pVDZ              selected for orbital group  1
 Library entry C      D cc-pVDZ              selected for orbital group  1
 Library entry S      S cc-pVDZ              selected for orbital group  2
 Library entry S      P cc-pVDZ              selected for orbital group  2
 Library entry S      D cc-pVDZ              selected for orbital group  2
 Library entry H      S cc-pVDZ              selected for orbital group  4
 Library entry H      P cc-pVDZ              selected for orbital group  4


 PROGRAM * SEWARD (Integral evaluation for generally contracted gaussian basis sets)     Author: Roland Lindh, 1990

 Geometry written to block  1 of record 700


 Point group  C2  



 ATOMIC COORDINATES

 NR  ATOM    CHARGE       X              Y              Z

   1  C       6.00   -2.731177515   -1.690509118   -1.234059001
   2  C       6.00    2.731177515    1.690509118   -1.234059001
   3  C       6.00   -5.345441833   -1.683513352   -0.696233119
   4  C       6.00    5.345441833    1.683513352   -0.696233119
   5  C       6.00   -5.929028944   -0.200934012    1.319300011
   6  C       6.00    5.929028944    0.200934012    1.319300011
   7  S      16.00   -3.312150191    1.185822796    2.570085733
   8  S      16.00    3.312150191   -1.185822796    2.570085733
   9  C       6.00   -1.359403967   -0.219676883    0.382703366
  10  C       6.00    1.359403967    0.219676883    0.382703366
  11  H       1.00   -1.865748335   -2.757687349   -2.734630612
  12  H       1.00    1.865748335    2.757687349   -2.734630612
  13  H       1.00   -6.726528329   -2.744191492   -1.747987028
  14  H       1.00    6.726528329    2.744191492   -1.747987028
  15  H       1.00   -7.754026469    0.140975081    2.140820838
  16  H       1.00    7.754026469   -0.140975081    2.140820838

 Bond lengths in Bohr (Angstrom)

  1- 3  2.669022956   1- 9  2.580509772   1-11  2.034588952   2- 4  2.669022956   2-10  2.580509772
       ( 1.412386124)       ( 1.365546964)       ( 1.076658107)       ( 1.412386124)       ( 1.365546964)

  2-12  2.034588952   3- 5  2.569239034   3-13  2.034360910   4- 6  2.569239034   4-14  2.034360910
       ( 1.076658107)       ( 1.359582746)       ( 1.076537432)       ( 1.359582746)       ( 1.076537432)

  5- 7  3.214904941   5-15  2.030372937   6- 8  3.214904941   6-16  2.030372937   7- 9  3.251659388
       ( 1.701254430)       ( 1.074427088)       ( 1.701254430)       ( 1.074427088)       ( 1.720704046)

  8-10  3.251659388   9-10  2.754078488
       ( 1.720704046)       ( 1.457395573)

 Bond angles

  1- 3- 5  112.46230466   1- 3-13  124.01480945   1- 9- 7  110.40116117   1- 9-10  128.00351603

  2- 4- 6  112.46230466   2- 4-14  124.01480945   2-10- 8  110.40116117   2-10- 9  128.00351603

  3- 1- 9  113.13757513   3- 1-11  124.51511126   3- 5- 7  111.66823058   3- 5-15  128.22542985

  4- 2-10  113.13757513   4- 2-12  124.51511126   4- 6- 8  111.66823058   4- 6-16  128.22542985

  5- 3-13  123.52048614   5- 7- 9   92.33038036   6- 4-14  123.52048614   6- 8-10   92.33038036

  7- 5-15  120.10524249   7- 9-10  121.59373675   8- 6-16  120.10524249   8-10- 9  121.59373675

  9- 1-11  122.33922238  10- 2-12  122.33922238

 NUCLEAR CHARGE:                   86
 NUMBER OF PRIMITIVE AOS:         342
 NUMBER OF SYMMETRY AOS:          332
 NUMBER OF CONTRACTIONS:          178   (   89A   +   89B   )
 NUMBER OF INNER CORE ORBITALS:     2   (    1A   +    1B   )
 NUMBER OF OUTER CORE ORBITALS:    16   (    8A   +    8B   )
 NUMBER OF VALENCE ORBITALS:       46   (   23A   +   23B   )


 NUCLEAR REPULSION ENERGY  636.42912433

 Eigenvalues of metric

         1 0.761E-03 0.230E-02 0.365E-02 0.482E-02 0.111E-01 0.170E-01 0.181E-01 0.205E-01
         2 0.653E-03 0.999E-03 0.261E-02 0.424E-02 0.470E-02 0.128E-01 0.173E-01 0.196E-01


 Contracted 2-electron integrals neglected if value below      1.0D-11
 AO integral compression algorithm  1   Integral accuracy      1.0D-11

     304.611 MB (compressed) written to integral file ( 51.1%)


 NUMBER OF SORTED TWO-ELECTRON INTEGRALS:   64164105.     BUFFER LENGTH:  32768
 NUMBER OF SEGMENTS:   5  SEGMENT LENGTH:   15996036      RECORD LENGTH: 524288

 Memory used in sort:      16.55 MW

 SORT1 READ    74407720. AND WROTE    63695213. INTEGRALS IN    185 RECORDS. CPU TIME:     0.57 SEC, REAL TIME:     0.75 SEC
 SORT2 READ    63695213. AND WROTE    64164105. INTEGRALS IN   1162 RECORDS. CPU TIME:     0.48 SEC, REAL TIME:     0.60 SEC

 FILE SIZES:   FILE 1:   335.7 MBYTE,  FILE 4:   776.0 MBYTE,   TOTAL:   1111.7 MBYTE

 OPERATOR DM      FOR CENTER  0  COORDINATES:    0.000000    0.000000    0.000000


 **********************************************************************************************************************************
 DATASETS  * FILE   NREC   LENGTH (MB)   RECORD NAMES
              1      19      287.54       500      610      700      900      950      970     1000      129      960     1100   
                                          VAR    BASINP    GEOM    SYMINP    ZMAT    AOBASIS   BASIS     P2S    ABASIS      S 
                                         1400     1410     1200     1210     1080     1600     1650     1300     1700   
                                           T        V       H0       H01     AOSYM     SMH    MOLCAS    ERIS     OPER   

 PROGRAMS   *        TOTAL       INT
 CPU TIMES  *         5.20      5.10
 REAL TIME  *         6.11 SEC
 DISK USED  *         1.04 GB
 **********************************************************************************************************************************


 Program * Restricted Hartree-Fock

 Orbital guess generated from atomic densities. Full valence occupancy:   32  32

 Initial occupancy:  22  21

 NELEC=   86   SYM=1   MS2= 0   THRE=1.0D-08   THRD=3.2D-06   THRG=3.2D-06  HFMA2=F  DIIS_START=2   DIIS_MAX=10   DIIS_INCORE=F

 Level shifts:    0.00 (CLOSED)    0.00 (OPEN)    0.30 (GAP_MIN)

 ITER           ETOT              DE          GRAD        DDIFF     DIIS  NEXP   TIME(IT)  TIME(TOT)  DIAG
   1    -1101.36764320   -1101.36764320     0.00D+00     0.14D+00     0     0       0.16      0.31    start
   2    -1101.45459607      -0.08695286     0.50D-02     0.13D-01     1     0       0.17      0.48    diag
   3    -1101.48180940      -0.02721333     0.30D-02     0.60D-02     2     0       0.16      0.64    diag
   4    -1101.48546492      -0.00365552     0.77D-03     0.22D-02     3     0       0.15      0.79    diag
   5    -1101.48580433      -0.00033941     0.26D-03     0.55D-03     4     0       0.16      0.95    diag
   6    -1101.48592559      -0.00012126     0.12D-03     0.31D-03     5     0       0.15      1.10    diag
   7    -1101.48595843      -0.00003285     0.47D-04     0.20D-03     6     0       0.16      1.26    diag
   8    -1101.48596177      -0.00000334     0.16D-04     0.64D-04     7     0       0.15      1.41    fixocc
   9    -1101.48596201      -0.00000024     0.50D-05     0.18D-04     8     0       0.16      1.57    diag
  10    -1101.48596202      -0.00000001     0.12D-05     0.39D-05     9     0       0.15      1.72    diag/orth
  11    -1101.48596203      -0.00000000     0.49D-06     0.15D-05     9     0       0.16      1.88    diag
  12    -1101.48596203      -0.00000000     0.13D-06     0.32D-06     0     0       0.16      2.04    diag

 Final occupancy:  22  21

 !RHF STATE 1.1 Energy              -1101.485962026516
  RHF One-electron energy           -2778.233749016276
  RHF Two-electron energy            1040.318662659417
  RHF Kinetic energy                 1101.725059920059
  RHF Nuclear energy                  636.429124330343
  RHF Virial quotient                  -0.999782978619

 !RHF STATE 1.1 Dipole moment           0.00000000     0.00000000    -0.39833986
 Dipole moment /Debye                   0.00000000     0.00000000    -1.01247894

 Orbital energies:

           1.1          2.1          3.1          4.1          5.1          6.1          7.1          8.1          9.1         10.1
    -91.979198   -11.273452   -11.264299   -11.241890   -11.239943    -8.983984    -6.665528    -6.664483    -6.662585    -1.198402

          11.1         12.1         13.1         14.1         15.1         16.1         17.1         18.1         19.1         20.1
     -1.035689    -0.993643    -0.805840    -0.765522    -0.703522    -0.572206    -0.564240    -0.534742    -0.511916    -0.475016

          21.1         22.1         23.1         24.1
     -0.351867    -0.313128     0.128127     0.191108

           1.2          2.2          3.2          4.2          5.2          6.2          7.2          8.2          9.2         10.2
    -91.979198   -11.272666   -11.264299   -11.241891   -11.239943    -8.983988    -6.665528    -6.664483    -6.662586    -1.171440

          11.2         12.2         13.2         14.2         15.2         16.2         17.2         18.2         19.2         20.2
     -0.989884    -0.953936    -0.759170    -0.718686    -0.645152    -0.564510    -0.554270    -0.512363    -0.472947    -0.342239

          21.2         22.2         23.2
     -0.337927     0.110189     0.192617


 HOMO     22.1    -0.313128 =      -8.5206eV
 LUMO     22.2     0.110189 =       2.9984eV
 LUMO-HOMO         0.423316 =      11.5190eV

 Orbitals saved in record  2100.2


 **********************************************************************************************************************************
 DATASETS  * FILE   NREC   LENGTH (MB)   RECORD NAMES
              1      19      287.54       500      610      700      900      950      970     1000      129      960     1100   
                                          VAR    BASINP    GEOM    SYMINP    ZMAT    AOBASIS   BASIS     P2S    ABASIS      S 
                                         1400     1410     1200     1210     1080     1600     1650     1300     1700   
                                           T        V       H0       H01     AOSYM     SMH    MOLCAS    ERIS     OPER   

              2       4        0.90       700     1000      520     2100   
                                         GEOM     BASIS   MCVARS     RHF  

 PROGRAMS   *        TOTAL    HF-SCF       INT
 CPU TIMES  *         7.24      2.04      5.10
 REAL TIME  *         8.49 SEC
 DISK USED  *         1.04 GB
 **********************************************************************************************************************************


 PROGRAM * PAPT (Closed-shell)     Authors: C. Hampel, H.-J. Werner, 1991, P.J. Knowles, 2021


 CORETYPE=SMALL

 Convergence thresholds:  THRVAR = 1.00D-08  THRDEN = 1.00D-06

 Number of core orbitals:           2 (   1   1 )
 Number of closed-shell orbitals:  41 (  21  20 )
 Number of external orbitals:     135 (  67  68 )

 Molecular orbitals read from record     2100.2  Type=RHF/CANONICAL  

 Checking core orbitals using projection, core_type=SMALL
 Threshold for active space selection:  0.30


 Number of target functions:              2   (   1   1 )

 Number of N-1 electron functions:              41
 Number of N-2 electron functions:             861
 Number of singly external CSFs:              2767
 Number of doubly external CSFs:           7661824
 Total number of CSFs:                     7664592

 Length of J-op  integral file:               0.00 MB
 Length of K-op  integral file:               1.15 MB

 Integral transformation finished. Total CPU:   2.23 sec, npass=  1  Memory used:  15.69 MW

 Reference energy:                  -1101.48596203

                        CORR.ENERGY   TOTAL ENERGY   ENERGY CHANGE
 MP2:                   -1.34884356 -1102.83480559    -1.34884356

 SCS-MP2 correlation energy:           -1.29705368   (PS=  1.200000  PT=  0.333333)
 SCS-MP2 total energy:              -1102.78301571
 Iteration:   1     0.2615D+00
 Iteration:   2     0.3191D+00
 Iteration:   3     0.1432D+00
 Iteration:   4     0.9433D-01
 Iteration:   5     0.5734D-01
 Iteration:   6     0.2697D-01
 Iteration:   7     0.2921D-01
 Iteration:   8     0.1577D-01
 Iteration:   9     0.7868D-02
 Iteration:  10     0.2115D-01
 Iteration:  11     0.1153D-02
 Iteration:  12     0.2359D-02
 Iteration:  13     0.4169D-03
 Iteration:  14     0.6468D-03
 Iteration:  15     0.1925D-03
 Iteration:  16     0.1734D-03
 Iteration:  17     0.8602D-04
 PAPT operator written to  7000.1
 PAPT orbitals and eigenvalues written to  7000.2

 MP3(D):                -1.38414835 -1102.87011037    -0.03530479



 RESULTS
 =======

  Reference energy                  -1101.485962026517

  Correlated core orbitals:             2.1       3.1       4.1       5.1       6.1       7.1       8.1       9.1       2.2       3.2
                                        4.2       5.2       6.2       7.2       8.2       9.2
  Orbital energies:                   -11.2735  -11.2643  -11.2419  -11.2399   -8.9840   -6.6655   -6.6645   -6.6626  -11.2727  -11.2643
                                      -11.2419  -11.2399   -8.9840   -6.6655   -6.6645   -6.6626

  MP3 core-core energy                 -0.013245450693
  MP3 core-valence energy              -0.021361797952
  MP3 valence correlation energy       -1.349541096842

  MP3 singlet pair energy              -0.875817277991
  MP3 triplet pair energy              -0.508331067496
  MP3 correlation energy               -1.384148345486

 !MP3 total energy                  -1102.870110372004

 Timing summary (sec):

 STEP                 CPU(USER)    SYS     CPU(TOT)    WALL
 Transformation          2.37      0.15      2.52      2.52
 CCSD iterations        49.64      0.29     49.93     42.26

 Program statistics:

 Available memory in ccsd:              3145721254
 Min. memory needed in ccsd:              19638784
 Max. memory used in ccsd:                26837902
 Max. memory used in cckext:              28176008 ( 1 integral passes)



 **********************************************************************************************************************************
 DATASETS  * FILE   NREC   LENGTH (MB)   RECORD NAMES
              1      21      444.26       500      610      700      900      950      970     1000      129      960     1100   
                                          VAR    BASINP    GEOM    SYMINP    ZMAT    AOBASIS   BASIS     P2S    ABASIS      S 
                                         1400     1410     1200     1210     1080     1600     1650     1300     1700     1380   
                                           T        V       H0       H01     AOSYM     SMH    MOLCAS    ERIS     OPER     JKOP   
                                         7000   
                                        PAPT AO    

              2       5        1.36       700     1000      520     2100     7000   
                                         GEOM     BASIS   MCVARS     RHF     PAPT   

 PROGRAMS   *        TOTAL      PAPT    HF-SCF       INT
 CPU TIMES  *        51.94     44.70      2.04      5.10
 REAL TIME  *        53.32 SEC
 DISK USED  *         1.04 GB
 **********************************************************************************************************************************


 PROGRAM * MP4 (Closed-shell)     Authors: C. Hampel, H.-J. Werner, 1991, M. Deegan, P.J. Knowles, 1992


 CORETYPE=SMALL

 Convergence thresholds:  THRVAR = 1.00D-08  THRDEN = 1.00D-06

 MP4(T)     terms to be evaluated (factor= 0.000)


 Number of core orbitals:           2 (   1   1 )
 Number of closed-shell orbitals:  41 (  21  20 )
 Number of external orbitals:     135 (  67  68 )

 Molecular orbitals read from record     7000.2  Type=PAPT/CANONICAL (state 1.1)

 Checking core orbitals using projection, core_type=SMALL
 Threshold for active space selection:  0.30


 Number of target functions:              2   (   1   1 )

 Number of N-1 electron functions:              41
 Number of N-2 electron functions:             861
 Number of singly external CSFs:              2767
 Number of doubly external CSFs:           7661824
 Total number of CSFs:                     7664592

 Length of J-op  integral file:               0.00 MB
 Length of K-op  integral file:               1.15 MB

 Memory could be reduced to 71.67 Mwords without degradation in triples

 Integral transformation finished. Total CPU:   6.81 sec, npass=  1  Memory used:  59.75 MW
 Orbital energies read from record       7000.2  Type=PAPT/CANONICAL (state 1.1)

 Reference energy:                  -1101.48596203

                        CORR.ENERGY   TOTAL ENERGY   ENERGY CHANGE
 MP2:                   -1.39764301 -1102.88360504    -1.39764301

 SCS-MP2 correlation energy:           -1.35375343   (PS=  1.200000  PT=  0.333333)
 SCS-MP2 total energy:              -1102.83971546

 MP3(D):                -1.39847505 -1102.88443707    -0.00083204
 MP4(DQ):               -1.38274048 -1102.86870251     0.01573457
 MP4(SDQ):              -1.39429435 -1102.88025638    -0.01155387

 Norm of t1 vector:      0.09823232      S-energy:    -0.01155387      T1 diagnostic:  0.00767066

 Largest off-diagonal element in interal  block of Fock matrix:  0.15D+00
 Largest off-diagonal element in external block of Fock matrix:  0.12D+00


 Total CPU time for triples:    406.78 sec


 RESULTS
 =======

  Reference energy                  -1101.485962026518

  Correlated core orbitals:             2.1       3.1       4.1       5.1       6.1       7.1       8.1       9.1       2.2       3.2
                                        4.2       5.2       6.2       7.2       8.2       9.2
  Orbital energies:                   -11.4956  -11.4244  -11.3683  -11.3273   -9.4643   -6.9995   -7.0637   -7.1453  -11.4488  -11.4241
                                      -11.3594  -11.3232   -9.4646   -6.9996   -7.0638   -7.1458

  MP4(SDQ) core-core energy            -0.013385234214
  MP4(SDQ) core-valence energy         -0.021216376700
  MP4(SDQ) valence correlation ener    -1.359692743601

  MP4(SDQ) singlet pair energy         -0.876034331384
  MP4(SDQ) triplet pair energy         -0.506706150665
  MP4(SDQ) correlation energy          -1.394294354515

  Triples contribution                 -0.071459897180
  Total correlation energy             -1.465754251695

  MP4(SDQ) total energy             -1102.880256381033
 !MP4(SDTQ) total energy            -1102.951716278213

 Timing summary (sec):

 STEP                 CPU(USER)    SYS     CPU(TOT)    WALL
 Transformation          7.52      0.60      8.12      8.19
 CCSD iterations        88.49      0.41     88.90     36.70
 Triples               406.78     46.07    452.85    646.49

 Program statistics:

 Available memory in ccsd:              3145721254
 Min. memory needed in ccsd:              19638784
 Max. memory used in ccsd:                26837902
 Max. memory used in cckext:              28176008 ( 1 integral passes)



 **********************************************************************************************************************************
 DATASETS  * FILE   NREC   LENGTH (MB)   RECORD NAMES
              1      22      638.09       500      610      700      900      950      970     1000      129      960     1100   
                                          VAR    BASINP    GEOM    SYMINP    ZMAT    AOBASIS   BASIS     P2S    ABASIS      S 
                                         1400     1410     1200     1210     1080     1600     1650     1300     1700     1380   
                                           T        V       H0       H01     AOSYM     SMH    MOLCAS    ERIS     OPER     JKOP   
                                         7000     1380(1)
                                        PAPT AO   JKOP   

              2       5        1.36       700     1000      520     2100     7000   
                                         GEOM     BASIS   MCVARS     RHF     PAPT   

 PROGRAMS   *        TOTAL       MP4      PAPT    HF-SCF       INT
 CPU TIMES  *       502.72    450.78     44.70      2.04      5.10
 REAL TIME  *       744.74 SEC
 DISK USED  *         1.27 GB
 **********************************************************************************************************************************

 Dump information in style XML to xml output                                                                      

 Orbitals will not be exported.

 **********************************************************************************************************************************

 MP4/cc-pVDZ energy=  -1102.951716278213

             MP4            PAPT          HF-SCF
  -1102.95171628  -1102.87011037  -1101.48596203
 **********************************************************************************************************************************
 Molpro calculation terminated
