
 Working directory              : /var/folders/2v/xbgp75_9785319ghcgb4zr4r0000gr/T//molpro.bx70tEgaTq/
 Global scratch directory       : /var/folders/2v/xbgp75_9785319ghcgb4zr4r0000gr/T//molpro.bx70tEgaTq/
 Wavefunction directory         : /Users/peterk/wfu/
 Main file repository           : /var/folders/2v/xbgp75_9785319ghcgb4zr4r0000gr/T//molpro.bx70tEgaTq/

 id        : peterk

 Nodes        nprocs
 pjk2022.local    1
 GA implementation: MPI file
 GA implementation (serial work in mppx): MPI file

 Using customized tuning parameters: mindgm=1; mindgv=20; mindgc=4; mindgr=1; noblas=0; minvec=7
 default implementation of scratch files=df  


 Variables initialized (1037), CPU time= 0.00 sec
 
 
 
 geometry={
 5
    N   -0.03584975865471     -0.04327420043232     -0.01909653330203
    O   -0.00506609630306      0.04228356956699      1.40258952423515
    H   0.93668394242907     -0.00324232973676     -0.29970354802110
    H   -0.45177475304937      0.83035713913816     -0.31299415647016
    H   -0.41664833442194     -0.77876717853606      1.67387371355814
 }
 basis=cc-pVDZ
 core,small
 
 
 hf; papt;mp4
 
 
 
 {put,xml;noorbitals,nobasis}
 Commands initialized (841), CPU time= 0.00 sec, 716 directives.
 Default parameters read. Elapsed time= 0.05 sec

 Checking input...
 Passed
1


                                         ***  PROGRAM SYSTEM MOLPRO  ***
                                       Copyright, TTI GmbH Stuttgart, 2015
                                    Version 2023.1 linked Sat Jul 22 07:59:25 2023


 **********************************************************************************************************************************
 LABEL *                                                                                                                                                                 
  64 bit serial version                                                                  DATE: 01-Aug-23          TIME: 22:54:23  
 **********************************************************************************************************************************

 SHA1:             401d111a1dbfa49388eacdf0424f85138b2d30d0
 **********************************************************************************************************************************

 Memory per process:      3146 MW
 Total memory per node:   4194 MW
 Total GA space:          1049 MW

 GA preallocation disabled
 GA check enabled

 Geometry recognized as XYZ


 Variable memory set to 3145.7 MW

 SETTING BASIS          =    CC-PVDZ


 Recomputing integrals since basis changed


 Using spherical harmonics

 Library entry N      S cc-pVDZ              selected for orbital group  1
 Library entry N      P cc-pVDZ              selected for orbital group  1
 Library entry N      D cc-pVDZ              selected for orbital group  1
 Library entry O      S cc-pVDZ              selected for orbital group  2
 Library entry O      P cc-pVDZ              selected for orbital group  2
 Library entry O      D cc-pVDZ              selected for orbital group  2
 Library entry H      S cc-pVDZ              selected for orbital group  3
 Library entry H      P cc-pVDZ              selected for orbital group  3


 PROGRAM * SEWARD (Integral evaluation for generally contracted gaussian basis sets)     Author: Roland Lindh, 1990

 Geometry written to block  1 of record 700


 Point group  C1  



 ATOMIC COORDINATES

 NR  ATOM    CHARGE       X              Y              Z

   1  N       7.00   -0.067746225   -0.081776387   -0.036087218
   2  O       8.00   -0.009573535    0.079904366    2.650510066
   3  H       1.00    1.770076117   -0.006127115   -0.566357624
   4  H       1.00   -0.853730553    1.569147579   -0.591473234
   5  H       1.00   -0.787351242   -1.471656682    3.163162886

 Bond lengths in Bohr (Angstrom)

 1-2  2.692086495  1-3  1.914288504  1-4  1.910961782  2-5  1.809721736
     ( 1.424590823)     ( 1.012997851)     ( 1.011237426)     ( 0.957663501)

 Bond angles

  1-2-5  102.82195619   2-1-3  104.67422078   2-1-4  104.30251315   3-1-4  106.27369107

 NUCLEAR CHARGE:                   18
 NUMBER OF PRIMITIVE AOS:          75
 NUMBER OF SYMMETRY AOS:           73
 NUMBER OF CONTRACTIONS:           43   (   43A   )
 NUMBER OF INNER CORE ORBITALS:     0   (    0A   )
 NUMBER OF OUTER CORE ORBITALS:     2   (    2A   )
 NUMBER OF VALENCE ORBITALS:       11   (   11A   )


 NUCLEAR REPULSION ENERGY   39.60914823

 Eigenvalues of metric

         1 0.917E-02 0.208E-01 0.383E-01 0.418E-01 0.450E-01 0.765E-01 0.771E-01 0.123E+00


 Contracted 2-electron integrals neglected if value below      1.0D-11
 AO integral compression algorithm  1   Integral accuracy      1.0D-11

     2.621 MB (compressed) written to integral file ( 61.7%)


 NUMBER OF SORTED TWO-ELECTRON INTEGRALS:     447931.     BUFFER LENGTH:  32768
 NUMBER OF SEGMENTS:   1  SEGMENT LENGTH:     447931      RECORD LENGTH: 524288

 Memory used in sort:       1.00 MW

 SORT1 READ      553316. AND WROTE      438088. INTEGRALS IN      2 RECORDS. CPU TIME:     0.00 SEC, REAL TIME:     0.00 SEC
 SORT2 READ      438088. AND WROTE      447931. INTEGRALS IN     10 RECORDS. CPU TIME:     0.02 SEC, REAL TIME:     0.01 SEC

 FILE SIZES:   FILE 1:    32.7 MBYTE,  FILE 4:     8.5 MBYTE,   TOTAL:     41.2 MBYTE

 OPERATOR DM      FOR CENTER  0  COORDINATES:    0.000000    0.000000    0.000000


 **********************************************************************************************************************************
 DATASETS  * FILE   NREC   LENGTH (MB)   RECORD NAMES
              1      19       30.72       500      610      700      900      950      970     1000      129      960     1100   
                                          VAR    BASINP    GEOM    SYMINP    ZMAT    AOBASIS   BASIS     P2S    ABASIS      S 
                                         1400     1410     1200     1210     1080     1600     1650     1300     1700   
                                           T        V       H0       H01     AOSYM     SMH    MOLCAS    ERIS     OPER   

 PROGRAMS   *        TOTAL       INT
 CPU TIMES  *         0.31      0.22
 REAL TIME  *         0.79 SEC
 DISK USED  *        39.67 MB
 **********************************************************************************************************************************


 Program * Restricted Hartree-Fock

 Orbital guess generated from atomic densities. Full valence occupancy:   13

 Initial occupancy:   9

 NELEC=   18   SYM=1   MS2= 0   THRE=1.0D-08   THRD=3.2D-06   THRG=3.2D-06  HFMA2=F  DIIS_START=2   DIIS_MAX=10   DIIS_INCORE=F

 Level shifts:    0.00 (CLOSED)    0.00 (OPEN)    0.30 (GAP_MIN)

 ITER           ETOT              DE          GRAD        DDIFF     DIIS  NEXP   TIME(IT)  TIME(TOT)  DIAG
   1     -130.96853074    -130.96853074     0.00D+00     0.18D+00     0     0       0.00      0.00    start
   2     -130.99390448      -0.02537374     0.10D-01     0.21D-01     1     0       0.00      0.00    diag
   3     -130.99700487      -0.00310039     0.39D-02     0.61D-02     2     0       0.01      0.01    diag
   4     -130.99744927      -0.00044440     0.12D-02     0.20D-02     3     0       0.00      0.01    diag
   5     -130.99747867      -0.00002940     0.24D-03     0.53D-03     4     0       0.00      0.01    diag
   6     -130.99748065      -0.00000198     0.55D-04     0.12D-03     5     0       0.00      0.01    diag
   7     -130.99748100      -0.00000035     0.23D-04     0.54D-04     6     0       0.01      0.02    diag
   8     -130.99748104      -0.00000004     0.58D-05     0.19D-04     7     0       0.00      0.02    fixocc
   9     -130.99748104      -0.00000000     0.16D-05     0.51D-05     8     0       0.00      0.02    diag
  10     -130.99748104      -0.00000000     0.42D-06     0.14D-05     9     0       0.00      0.02    diag/orth
  11     -130.99748104      -0.00000000     0.85D-07     0.16D-06     0     0       0.00      0.02    diag

 Final occupancy:   9

 !RHF STATE 1.1 Energy               -130.997481042823
  RHF One-electron energy            -258.232673269285
  RHF Two-electron energy              87.626044001243
  RHF Kinetic energy                  130.915051579969
  RHF Nuclear energy                   39.609148225220
  RHF Virial quotient                  -1.000629640839

 !RHF STATE 1.1 Dipole moment           0.04891420    -0.02125240    -0.28502176
 Dipole moment /Debye                   0.12432751    -0.05401821    -0.72445306

 Orbital energies:

           1.1          2.1          3.1          4.1          5.1          6.1          7.1          8.1          9.1         10.1
    -20.575165   -15.598720    -1.391622    -1.073275    -0.684430    -0.667141    -0.610355    -0.472227    -0.417359     0.193924

          11.1
      0.213258


 HOMO      9.1    -0.417359 =     -11.3569eV
 LUMO     10.1     0.193924 =       5.2769eV
 LUMO-HOMO         0.611283 =      16.6339eV

 Orbitals saved in record  2100.2


 **********************************************************************************************************************************
 DATASETS  * FILE   NREC   LENGTH (MB)   RECORD NAMES
              1      19       30.72       500      610      700      900      950      970     1000      129      960     1100   
                                          VAR    BASINP    GEOM    SYMINP    ZMAT    AOBASIS   BASIS     P2S    ABASIS      S 
                                         1400     1410     1200     1210     1080     1600     1650     1300     1700   
                                           T        V       H0       H01     AOSYM     SMH    MOLCAS    ERIS     OPER   

              2       4        0.47       700     1000      520     2100   
                                         GEOM     BASIS   MCVARS     RHF  

 PROGRAMS   *        TOTAL    HF-SCF       INT
 CPU TIMES  *         0.33      0.02      0.22
 REAL TIME  *         0.82 SEC
 DISK USED  *        39.67 MB
 **********************************************************************************************************************************


 PROGRAM * PAPT (Closed-shell)     Authors: C. Hampel, H.-J. Werner, 1991, P.J. Knowles, 2021


 CORETYPE=SMALL

 Convergence thresholds:  THRVAR = 1.00D-08  THRDEN = 1.00D-06

 Number of closed-shell orbitals:   9 (   9 )
 Number of external orbitals:      34 (  34 )

 Molecular orbitals read from record     2100.2  Type=RHF/CANONICAL  

 Number of N-1 electron functions:               9
 Number of N-2 electron functions:              45
 Number of singly external CSFs:               306
 Number of doubly external CSFs:             46971
 Total number of CSFs:                       47278

 Length of J-op  integral file:               0.00 MB
 Length of K-op  integral file:               0.19 MB

 Integral transformation finished. Total CPU:   0.01 sec, npass=  1  Memory used:   0.23 MW

 Reference energy:                   -130.99748104

                        CORR.ENERGY   TOTAL ENERGY   ENERGY CHANGE
 MP2:                   -0.36992268  -131.36740372    -0.36992268

 SCS-MP2 correlation energy:           -0.36388094   (PS=  1.200000  PT=  0.333333)
 SCS-MP2 total energy:               -131.36136198
 Iteration:   1     0.2177D+00
 Iteration:   2     0.1118D+01
 Iteration:   3     0.9096D-01
 Iteration:   4     0.2613D+00
 Iteration:   5     0.5041D-01
 Iteration:   6     0.6486D-01
 Iteration:   7     0.4958D-01
 Iteration:   8     0.1779D-01
 Iteration:   9     0.1680D-01
 Iteration:  10     0.5170D-02
 Iteration:  11     0.1148D-01
 Iteration:  12     0.1734D-02
 Iteration:  13     0.3389D-02
 Iteration:  14     0.1014D-02
 Iteration:  15     0.9082D-03
 Iteration:  16     0.9352D-03
 Iteration:  17     0.2898D-03
 Iteration:  18     0.1998D-02
 Iteration:  19     0.9220D-04
 PAPT operator written to  7000.1
 PAPT orbitals and eigenvalues written to  7000.2

 MP3(D):                -0.38414399  -131.38162504    -0.01422132



 RESULTS
 =======

  Reference energy                   -130.997481042823

  Correlated core orbitals:             1.1       2.1
  Orbital energies:                   -20.5752  -15.5987

  MP3 core-core energy                 -0.000909382891
  MP3 core-valence energy              -0.003662654568
  MP3 valence correlation energy       -0.379571957040

  MP3 singlet pair energy              -0.256261467540
  MP3 triplet pair energy              -0.127882526958
  MP3 correlation energy               -0.384143994499

 !MP3 total energy                   -131.381625037322

 Timing summary (sec):

 STEP                 CPU(USER)    SYS     CPU(TOT)    WALL
 Transformation          0.01      0.00      0.01      0.00
 CCSD iterations         0.58      0.02      0.60      0.17

 Program statistics:

 Available memory in ccsd:              3145727667
 Min. memory needed in ccsd:                159671
 Max. memory used in ccsd:                  195356
 Max. memory used in cckext:                217910 ( 1 integral passes)



 **********************************************************************************************************************************
 DATASETS  * FILE   NREC   LENGTH (MB)   RECORD NAMES
              1      21       31.71       500      610      700      900      950      970     1000      129      960     1100   
                                          VAR    BASINP    GEOM    SYMINP    ZMAT    AOBASIS   BASIS     P2S    ABASIS      S 
                                         1400     1410     1200     1210     1080     1600     1650     1300     1700     1380   
                                           T        V       H0       H01     AOSYM     SMH    MOLCAS    ERIS     OPER     JKOP   
                                         7000   
                                        PAPT AO    

              2       5        0.61       700     1000      520     2100     7000   
                                         GEOM     BASIS   MCVARS     RHF     PAPT   

 PROGRAMS   *        TOTAL      PAPT    HF-SCF       INT
 CPU TIMES  *         0.51      0.17      0.02      0.22
 REAL TIME  *         1.02 SEC
 DISK USED  *        39.67 MB
 **********************************************************************************************************************************


 PROGRAM * MP4 (Closed-shell)     Authors: C. Hampel, H.-J. Werner, 1991, M. Deegan, P.J. Knowles, 1992


 CORETYPE=SMALL

 Convergence thresholds:  THRVAR = 1.00D-08  THRDEN = 1.00D-06

 MP4(T)     terms to be evaluated (factor= 0.000)


 Number of closed-shell orbitals:   9 (   9 )
 Number of external orbitals:      34 (  34 )

 Molecular orbitals read from record     7000.2  Type=PAPT/CANONICAL (state 1.1)

 Number of N-1 electron functions:               9
 Number of N-2 electron functions:              45
 Number of singly external CSFs:               306
 Number of doubly external CSFs:             46971
 Total number of CSFs:                       47278

 Length of J-op  integral file:               0.00 MB
 Length of K-op  integral file:               0.19 MB

 Memory could be reduced to 0.65 Mwords without degradation in triples

 Integral transformation finished. Total CPU:   0.02 sec, npass=  1  Memory used:   0.64 MW
 Orbital energies read from record       7000.2  Type=PAPT/CANONICAL (state 1.1)

 Reference energy:                   -130.99748104

                        CORR.ENERGY   TOTAL ENERGY   ENERGY CHANGE
 MP2:                   -0.38718127  -131.38466232    -0.38718127

 SCS-MP2 correlation energy:           -0.38270608   (PS=  1.200000  PT=  0.333333)
 SCS-MP2 total energy:               -131.38018713

 MP3(D):                -0.38741221  -131.38489325    -0.00023093
 MP4(DQ):               -0.38671307  -131.38419411     0.00069914
 MP4(SDQ):              -0.38888445  -131.38636549    -0.00217139

 Norm of t1 vector:      0.03419942      S-energy:    -0.00217139      T1 diagnostic:  0.00569990

 Largest off-diagonal element in interal  block of Fock matrix:  0.13D+00
 Largest off-diagonal element in external block of Fock matrix:  0.19D+00


 Total CPU time for triples:      0.10 sec


 RESULTS
 =======

  Reference energy                   -130.997481042823

  Correlated core orbitals:             1.1       2.1
  Orbital energies:                   -21.4817  -15.9847

  MP4(SDQ) core-core energy            -0.000909280555
  MP4(SDQ) core-valence energy         -0.003607079990
  MP4(SDQ) valence correlation ener    -0.384368090785

  MP4(SDQ) singlet pair energy         -0.257827499230
  MP4(SDQ) triplet pair energy         -0.128885566416
  MP4(SDQ) correlation energy          -0.388884451329

  Triples contribution                 -0.009575168614
  Total correlation energy             -0.398459619943

  MP4(SDQ) total energy              -131.386365494151
 !MP4(SDTQ) total energy             -131.395940662766

 Timing summary (sec):

 STEP                 CPU(USER)    SYS     CPU(TOT)    WALL
 Transformation          0.02      0.01      0.03      0.01
 CCSD iterations         0.65      0.00      0.65      0.07
 Triples                 0.10      0.00      0.10      0.10

 Program statistics:

 Available memory in ccsd:              3145727667
 Min. memory needed in ccsd:                159671
 Max. memory used in ccsd:                  195356
 Max. memory used in cckext:                217910 ( 1 integral passes)



 **********************************************************************************************************************************
 DATASETS  * FILE   NREC   LENGTH (MB)   RECORD NAMES
              1      22       33.10       500      610      700      900      950      970     1000      129      960     1100   
                                          VAR    BASINP    GEOM    SYMINP    ZMAT    AOBASIS   BASIS     P2S    ABASIS      S 
                                         1400     1410     1200     1210     1080     1600     1650     1300     1700     1380   
                                           T        V       H0       H01     AOSYM     SMH    MOLCAS    ERIS     OPER     JKOP   
                                         7000     1380(1)
                                        PAPT AO   JKOP   

              2       5        0.61       700     1000      520     2100     7000   
                                         GEOM     BASIS   MCVARS     RHF     PAPT   

 PROGRAMS   *        TOTAL       MP4      PAPT    HF-SCF       INT
 CPU TIMES  *         0.69      0.18      0.17      0.02      0.22
 REAL TIME  *         1.22 SEC
 DISK USED  *        39.67 MB
 **********************************************************************************************************************************

 Dump information in style XML to xml output                                                                      

 Orbitals will not be exported.

 **********************************************************************************************************************************

 MP4/cc-pVDZ energy=   -131.395940662766

             MP4            PAPT          HF-SCF
   -131.39594066   -131.38162504   -130.99748104
 **********************************************************************************************************************************
 Molpro calculation terminated
