
 Working directory              : /var/folders/2v/xbgp75_9785319ghcgb4zr4r0000gr/T//molpro.FmeLiK9tDi/
 Global scratch directory       : /var/folders/2v/xbgp75_9785319ghcgb4zr4r0000gr/T//molpro.FmeLiK9tDi/
 Wavefunction directory         : /Users/peterk/wfu/
 Main file repository           : /var/folders/2v/xbgp75_9785319ghcgb4zr4r0000gr/T//molpro.FmeLiK9tDi/

 id        : peterk

 Nodes        nprocs
 pjk2022.local    1
 GA implementation: MPI file
 GA implementation (serial work in mppx): MPI file

 Using customized tuning parameters: mindgm=1; mindgv=20; mindgc=4; mindgr=1; noblas=0; minvec=7
 default implementation of scratch files=df  


 Variables initialized (1037), CPU time= 0.00 sec
 
 
 
 geometry={
 4
  S     1.0572291    0.0000000   -0.6622784
  S    -1.0572291    0.0000000   -0.6622784
  H     1.2093176    0.0000000    0.6627105
  H    -1.2093176    0.0000000    0.6627105
 }
 basis=cc-pVDZ
 core,small
 
 
 hf; papt;mp2
 
 
 
 {put,xml;noorbitals,nobasis}
 Commands initialized (841), CPU time= 0.01 sec, 716 directives.
 Default parameters read. Elapsed time= 0.06 sec

 Checking input...
 Passed
1


                                         ***  PROGRAM SYSTEM MOLPRO  ***
                                       Copyright, TTI GmbH Stuttgart, 2015
                                    Version 2023.1 linked Sat Jul 22 07:59:25 2023


 **********************************************************************************************************************************
 LABEL *                                                                                                                                                                 
  64 bit serial version                                                                  DATE: 01-Aug-23          TIME: 21:48:04  
 **********************************************************************************************************************************

 SHA1:             401d111a1dbfa49388eacdf0424f85138b2d30d0
 **********************************************************************************************************************************

 Memory per process:      3146 MW
 Total memory per node:   4194 MW
 Total GA space:          1049 MW

 GA preallocation disabled
 GA check enabled

 Geometry recognized as XYZ


 Variable memory set to 3145.7 MW

 SETTING BASIS          =    CC-PVDZ


 Recomputing integrals since basis changed


 Using spherical harmonics

 Library entry S      S cc-pVDZ              selected for orbital group  1
 Library entry S      P cc-pVDZ              selected for orbital group  1
 Library entry S      D cc-pVDZ              selected for orbital group  1
 Library entry H      S cc-pVDZ              selected for orbital group  2
 Library entry H      P cc-pVDZ              selected for orbital group  2


 PROGRAM * SEWARD (Integral evaluation for generally contracted gaussian basis sets)     Author: Roland Lindh, 1990

 Geometry written to block  1 of record 700


 Point group  C2v 



 ATOMIC COORDINATES

 NR  ATOM    CHARGE       X              Y              Z

   1  S      16.00    1.997873450    0.000000000   -1.251524794
   2  S      16.00   -1.997873450    0.000000000   -1.251524794
   3  H       1.00    2.285279062    0.000000000    1.252341345
   4  H       1.00   -2.285279062    0.000000000    1.252341345

 Bond lengths in Bohr (Angstrom)

 1-2  3.995746900  1-3  2.520307050  2-4  2.520307050
     ( 2.114458200)     ( 1.333689056)     ( 1.333689056)

 Bond angles

  1-2-4   96.54802332   2-1-3   96.54802332

 NUCLEAR CHARGE:                   34
 NUMBER OF PRIMITIVE AOS:          98
 NUMBER OF SYMMETRY AOS:           96
 NUMBER OF CONTRACTIONS:           46   (   17A1  +   17B1  +    6B2  +    6A2  )
 NUMBER OF INNER CORE ORBITALS:     2   (    1A1  +    1B1  +    0B2  +    0A2  )
 NUMBER OF OUTER CORE ORBITALS:     8   (    3A1  +    3B1  +    1B2  +    1A2  )
 NUMBER OF VALENCE ORBITALS:       10   (    4A1  +    4B1  +    1B2  +    1A2  )


 NUCLEAR REPULSION ENERGY   83.43366985

 Eigenvalues of metric

         1 0.217E-01 0.639E-01 0.860E-01 0.996E-01 0.160E+00 0.678E+00 0.961E+00 0.998E+00
         2 0.927E-02 0.425E-01 0.745E-01 0.809E-01 0.120E+00 0.349E+00 0.589E+00 0.867E+00
         3 0.109E+00 0.654E+00 0.100E+01 0.111E+01 0.130E+01 0.248E+01
         4 0.876E-01 0.625E+00 0.807E+00 0.100E+01 0.119E+01 0.163E+01


 Contracted 2-electron integrals neglected if value below      1.0D-11
 AO integral compression algorithm  1   Integral accuracy      1.0D-11

     1.311 MB (compressed) written to integral file ( 46.1%)


 NUMBER OF SORTED TWO-ELECTRON INTEGRALS:     165342.     BUFFER LENGTH:  32768
 NUMBER OF SEGMENTS:   1  SEGMENT LENGTH:     165342      RECORD LENGTH: 524288

 Memory used in sort:       0.72 MW

 SORT1 READ      291376. AND WROTE      135536. INTEGRALS IN      1 RECORDS. CPU TIME:     0.01 SEC, REAL TIME:     0.01 SEC
 SORT2 READ      135536. AND WROTE      165342. INTEGRALS IN      5 RECORDS. CPU TIME:     0.00 SEC, REAL TIME:     0.01 SEC

 FILE SIZES:   FILE 1:    31.4 MBYTE,  FILE 4:     4.3 MBYTE,   TOTAL:     35.7 MBYTE

 OPERATOR DM      FOR CENTER  0  COORDINATES:    0.000000    0.000000    0.000000


 **********************************************************************************************************************************
 DATASETS  * FILE   NREC   LENGTH (MB)   RECORD NAMES
              1      19       29.32       500      610      700      900      950      970     1000      129      960     1100   
                                          VAR    BASINP    GEOM    SYMINP    ZMAT    AOBASIS   BASIS     P2S    ABASIS      S 
                                         1400     1410     1200     1210     1080     1600     1650     1300     1700   
                                           T        V       H0       H01     AOSYM     SMH    MOLCAS    ERIS     OPER   

 PROGRAMS   *        TOTAL       INT
 CPU TIMES  *         0.32      0.22
 REAL TIME  *         0.81 SEC
 DISK USED  *        34.39 MB
 **********************************************************************************************************************************


 Program * Restricted Hartree-Fock

 Orbital guess generated from atomic densities. Full valence occupancy:    8   8   2   2

 Initial occupancy:   7   6   2   2

 NELEC=   34   SYM=1   MS2= 0   THRE=1.0D-08   THRD=3.2D-06   THRG=3.2D-06  HFMA2=F  DIIS_START=2   DIIS_MAX=10   DIIS_INCORE=F

 Level shifts:    0.00 (CLOSED)    0.00 (OPEN)    0.30 (GAP_MIN)

 ITER           ETOT              DE          GRAD        DDIFF     DIIS  NEXP   TIME(IT)  TIME(TOT)  DIAG
   1     -796.18283155    -796.18283155     0.00D+00     0.43D+00     0     0       0.00      0.00    start
   2     -796.20858758      -0.02575602     0.10D-01     0.27D-01     1     0       0.00      0.00    diag
   3     -796.21086975      -0.00228218     0.32D-02     0.40D-02     2     0       0.00      0.00    diag
   4     -796.21116541      -0.00029566     0.84D-03     0.23D-02     3     0       0.00      0.00    diag
   5     -796.21117381      -0.00000840     0.13D-03     0.41D-03     4     0       0.00      0.00    diag
   6     -796.21117406      -0.00000024     0.23D-04     0.83D-04     5     0       0.00      0.00    diag
   7     -796.21117409      -0.00000003     0.83D-05     0.29D-04     6     0       0.00      0.00    diag
   8     -796.21117409      -0.00000000     0.20D-05     0.79D-05     7     0       0.00      0.00    fixocc
   9     -796.21117409      -0.00000000     0.60D-06     0.25D-05     8     0       0.00      0.00    diag
  10     -796.21117409      -0.00000000     0.12D-06     0.29D-06     0     0       0.00      0.00    diag/orth

 Final occupancy:   7   6   2   2

 !RHF STATE 1.1 Energy               -796.211174089149
  RHF One-electron energy           -1266.737686540092
  RHF Two-electron energy             387.092842603405
  RHF Kinetic energy                  796.281898775864
  RHF Nuclear energy                   83.433669847538
  RHF Virial quotient                  -0.999911181346

 !RHF STATE 1.1 Dipole moment           0.00000000     0.00000000     0.80239959
 Dipole moment /Debye                   0.00000000     0.00000000     2.03949633

 Orbital energies:

           1.1          2.1          3.1          4.1          5.1          6.1          7.1          8.1          9.1
    -91.985660    -8.987897    -6.669757    -6.668215    -1.051785    -0.616045    -0.473814     0.115101     0.421032

           1.2          2.2          3.2          4.2          5.2          6.2          7.2          8.2
    -91.985659    -8.987787    -6.669541    -6.668128    -0.891634    -0.500078     0.100479     0.212821

           1.3          2.3          3.3          4.3
     -6.665126    -0.455269     0.660202     0.685008

           1.4          2.4          3.4          4.4
     -6.665107    -0.334498     0.715154     0.794642


 HOMO      2.4    -0.334498 =      -9.1022eV
 LUMO      7.2     0.100479 =       2.7342eV
 LUMO-HOMO         0.434977 =      11.8363eV

 Orbitals saved in record  2100.2


 **********************************************************************************************************************************
 DATASETS  * FILE   NREC   LENGTH (MB)   RECORD NAMES
              1      19       29.32       500      610      700      900      950      970     1000      129      960     1100   
                                          VAR    BASINP    GEOM    SYMINP    ZMAT    AOBASIS   BASIS     P2S    ABASIS      S 
                                         1400     1410     1200     1210     1080     1600     1650     1300     1700   
                                           T        V       H0       H01     AOSYM     SMH    MOLCAS    ERIS     OPER   

              2       4        0.44       700     1000      520     2100   
                                         GEOM     BASIS   MCVARS     RHF  

 PROGRAMS   *        TOTAL    HF-SCF       INT
 CPU TIMES  *         0.32      0.00      0.22
 REAL TIME  *         0.82 SEC
 DISK USED  *        34.39 MB
 **********************************************************************************************************************************


 PROGRAM * PAPT (Closed-shell)     Authors: C. Hampel, H.-J. Werner, 1991, P.J. Knowles, 2021


 CORETYPE=SMALL

 Convergence thresholds:  THRVAR = 1.00D-08  THRDEN = 1.00D-06

 Number of core orbitals:           2 (   1   1   0   0 )
 Number of closed-shell orbitals:  15 (   6   5   2   2 )
 Number of external orbitals:      29 (  10  11   4   4 )

 Molecular orbitals read from record     2100.2  Type=RHF/CANONICAL  

 Checking core orbitals using projection, core_type=SMALL
 Threshold for active space selection:  0.30


 Number of target functions:              2   (   1   1   0   0 )

 Number of N-1 electron functions:              15
 Number of N-2 electron functions:             120
 Number of singly external CSFs:               131
 Number of doubly external CSFs:             24906
 Total number of CSFs:                       25038

 Length of J-op  integral file:               0.00 MB
 Length of K-op  integral file:               0.11 MB

 Integral transformation finished. Total CPU:   0.00 sec, npass=  1  Memory used:   0.11 MW

 Reference energy:                   -796.21117409

                        CORR.ENERGY   TOTAL ENERGY   ENERGY CHANGE
 MP2:                   -0.28173994  -796.49291403    -0.28173994

 SCS-MP2 correlation energy:           -0.27946991   (PS=  1.200000  PT=  0.333333)
 SCS-MP2 total energy:               -796.49064400
 Iteration:   1     0.2045D+00
 Iteration:   2     0.1498D+00
 Iteration:   3     0.1234D+00
 Iteration:   4     0.3929D-01
 Iteration:   5     0.1512D-01
 Iteration:   6     0.1719D-01
 Iteration:   7     0.2810D-02
 Iteration:   8     0.2503D-01
 Iteration:   9     0.8516D-03
 Iteration:  10     0.3543D-03
 Iteration:  11     0.4200D-03
 Iteration:  12     0.8584D-04
 PAPT operator written to  7000.1
 PAPT orbitals and eigenvalues written to  7000.2

 MP3(D):                -0.31168260  -796.52285669    -0.02994266



 RESULTS
 =======

  Reference energy                   -796.211174089149

  Correlated core orbitals:             2.1       3.1       4.1       2.2       3.2       4.2       1.3       1.4
  Orbital energies:                    -8.9879   -6.6698   -6.6682   -8.9878   -6.6695   -6.6681   -6.6651   -6.6651

  MP3 core-core energy                 -0.007267724351
  MP3 core-valence energy              -0.005998559058
  MP3 valence correlation energy       -0.298416316966

  MP3 singlet pair energy              -0.210371647023
  MP3 triplet pair energy              -0.101310953353
  MP3 correlation energy               -0.311682600375

 !MP3 total energy                   -796.522856689525

 Timing summary (sec):

 STEP                 CPU(USER)    SYS     CPU(TOT)    WALL
 CCSD iterations         0.49      0.01      0.50      0.07

 Program statistics:

 Available memory in ccsd:              3145727093
 Min. memory needed in ccsd:                 92011
 Max. memory used in ccsd:                  109946
 Max. memory used in cckext:                178842 ( 1 integral passes)



 **********************************************************************************************************************************
 DATASETS  * FILE   NREC   LENGTH (MB)   RECORD NAMES
              1      21       30.12       500      610      700      900      950      970     1000      129      960     1100   
                                          VAR    BASINP    GEOM    SYMINP    ZMAT    AOBASIS   BASIS     P2S    ABASIS      S 
                                         1400     1410     1200     1210     1080     1600     1650     1300     1700     1380   
                                           T        V       H0       H01     AOSYM     SMH    MOLCAS    ERIS     OPER     JKOP   
                                         7000   
                                        PAPT AO    

              2       5        0.55       700     1000      520     2100     7000   
                                         GEOM     BASIS   MCVARS     RHF     PAPT   

 PROGRAMS   *        TOTAL      PAPT    HF-SCF       INT
 CPU TIMES  *         0.41      0.09      0.00      0.22
 REAL TIME  *         0.92 SEC
 DISK USED  *        34.39 MB
 **********************************************************************************************************************************


 PROGRAM * MP2 (Closed-shell)     Authors: C. Hampel, H.-J. Werner, 1991, M. Deegan, P.J. Knowles, 1992


 CORETYPE=SMALL

 Convergence thresholds:  THRVAR = 1.00D-08  THRDEN = 1.00D-06

 Number of core orbitals:           2 (   1   1   0   0 )
 Number of closed-shell orbitals:  15 (   6   5   2   2 )
 Number of external orbitals:      29 (  10  11   4   4 )

 Molecular orbitals read from record     7000.2  Type=PAPT/CANONICAL (state 1.1)

 Checking core orbitals using projection, core_type=SMALL
 Threshold for active space selection:  0.30


 Number of target functions:              2   (   1   1   0   0 )

 Number of N-1 electron functions:              15
 Number of N-2 electron functions:             120
 Number of singly external CSFs:               131
 Number of doubly external CSFs:             24906
 Total number of CSFs:                       25038

 Length of J-op  integral file:               0.00 MB
 Length of K-op  integral file:               0.11 MB

 Integral transformation finished. Total CPU:   0.00 sec, npass=  1  Memory used:   0.11 MW
 Orbital energies read from record       7000.2  Type=PAPT/CANONICAL (state 1.1)

 Memory needed for MP2:                      0.00 MW

 SCS-MP2 correlation energy:           -0.316695864681   (PS=  1.200000  PT=  0.333333)
 SCS-MP2 total energy:               -796.527869953831


  Reference energy                   -796.211174089150

  Correlated core orbitals:             2.1       3.1       4.1       2.2       3.2       4.2       1.3       1.4
  Orbital energies:                    -9.3610   -6.8509   -6.9068   -9.3672   -6.8506   -6.9015   -6.9941   -7.0045

  MP2 core-core energy                 -0.007238572223
  MP2 core-valence energy              -0.006057626123
  MP2 valence correlation energy       -0.304062710387

  MP2 singlet pair energy              -0.206356325621
  MP2 triplet pair energy              -0.111002583112
  MP2 correlation energy               -0.317358908733

 !MP2 total energy                   -796.528532997883


 **********************************************************************************************************************************
 DATASETS  * FILE   NREC   LENGTH (MB)   RECORD NAMES
              1      21       30.12       500      610      700      900      950      970     1000      129      960     1100   
                                          VAR    BASINP    GEOM    SYMINP    ZMAT    AOBASIS   BASIS     P2S    ABASIS      S 
                                         1400     1410     1200     1210     1080     1600     1650     1300     1700     1380   
                                           T        V       H0       H01     AOSYM     SMH    MOLCAS    ERIS     OPER     JKOP   
                                         7000   
                                        PAPT AO    

              2       5        0.55       700     1000      520     2100     7000   
                                         GEOM     BASIS   MCVARS     RHF     PAPT   

 PROGRAMS   *        TOTAL       MP2      PAPT    HF-SCF       INT
 CPU TIMES  *         0.46      0.05      0.09      0.00      0.22
 REAL TIME  *         0.98 SEC
 DISK USED  *        34.39 MB
 **********************************************************************************************************************************

 Dump information in style XML to xml output                                                                      

 Orbitals will not be exported.

 **********************************************************************************************************************************

 MP2/cc-pVDZ energy=   -796.528532997883

             MP2            PAPT          HF-SCF
   -796.52853300   -796.52285669   -796.21117409
 **********************************************************************************************************************************
 Molpro calculation terminated
