
 Working directory              : /var/folders/2v/xbgp75_9785319ghcgb4zr4r0000gr/T//molpro.M8tvERanl5/
 Global scratch directory       : /var/folders/2v/xbgp75_9785319ghcgb4zr4r0000gr/T//molpro.M8tvERanl5/
 Wavefunction directory         : /Users/peterk/wfu/
 Main file repository           : /var/folders/2v/xbgp75_9785319ghcgb4zr4r0000gr/T//molpro.M8tvERanl5/

 id        : peterk

 Nodes        nprocs
 pjk2022.local    1
 GA implementation: MPI file
 GA implementation (serial work in mppx): MPI file

 Using customized tuning parameters: mindgm=1; mindgv=20; mindgc=4; mindgr=1; noblas=0; minvec=7
 default implementation of scratch files=df  


 Variables initialized (1037), CPU time= 0.00 sec
 
 
 
 geometry={
 14
    C   0.62527800830666      2.89809627957375     -0.03936045477419
    C   -0.34255388276270      1.73745370003310     -0.03150100176433
    N   0.36138843311159      0.47998433732143      0.01403975045456
    C   -0.22542645347882     -0.72812870820658      0.09515084552755
    N   -1.56562722239652     -0.73828988669266     -0.07257090139012
    S   0.64293020269652     -2.11955820431433      0.35396039167116
    H   -2.11587316489113      0.09765190100243     -0.03875317825241
    H   -2.02216029547534     -1.61654192112677      0.07076902579688
    H   1.34388428549199      0.47744786420014      0.21511755062804
    H   -0.96428971121995      1.77250469141176     -0.92748736392476
    H   -1.00987152277285      1.82684418928150      0.83109160294360
    H   1.29351690735313      2.84225750698511     -0.89453694539721
    H   0.07941403827619      3.83516192614587     -0.09217618418552
    H   1.22905937776120      2.90822932438525      0.86522986266675
 }
 basis=cc-pVDZ
 core,small
 
 
 hf; papt;mp4
 
 
 
 {put,xml;noorbitals,nobasis}
 Commands initialized (841), CPU time= 0.00 sec, 716 directives.
 Default parameters read. Elapsed time= 0.05 sec

 Checking input...
 Passed
1


                                         ***  PROGRAM SYSTEM MOLPRO  ***
                                       Copyright, TTI GmbH Stuttgart, 2015
                                    Version 2023.1 linked Sat Jul 22 07:59:25 2023


 **********************************************************************************************************************************
 LABEL *                                                                                                                                                                 
  64 bit serial version                                                                  DATE: 01-Aug-23          TIME: 22:49:32  
 **********************************************************************************************************************************

 SHA1:             401d111a1dbfa49388eacdf0424f85138b2d30d0
 **********************************************************************************************************************************

 Memory per process:      3146 MW
 Total memory per node:   4194 MW
 Total GA space:          1049 MW

 GA preallocation disabled
 GA check enabled

 Geometry recognized as XYZ


 Variable memory set to 3145.7 MW

 SETTING BASIS          =    CC-PVDZ


 Recomputing integrals since basis changed


 Using spherical harmonics

 Library entry C      S cc-pVDZ              selected for orbital group  1
 Library entry C      P cc-pVDZ              selected for orbital group  1
 Library entry C      D cc-pVDZ              selected for orbital group  1
 Library entry N      S cc-pVDZ              selected for orbital group  2
 Library entry N      P cc-pVDZ              selected for orbital group  2
 Library entry N      D cc-pVDZ              selected for orbital group  2
 Library entry S      S cc-pVDZ              selected for orbital group  5
 Library entry S      P cc-pVDZ              selected for orbital group  5
 Library entry S      D cc-pVDZ              selected for orbital group  5
 Library entry H      S cc-pVDZ              selected for orbital group  6
 Library entry H      P cc-pVDZ              selected for orbital group  6


 PROGRAM * SEWARD (Integral evaluation for generally contracted gaussian basis sets)     Author: Roland Lindh, 1990

 Geometry written to block  1 of record 700


 Point group  C1  



 ATOMIC COORDINATES

 NR  ATOM    CHARGE       X              Y              Z

   1  C       6.00    1.181604187    5.476608251   -0.074380480
   2  C       6.00   -0.647333021    3.283311647   -0.059528266
   3  N       7.00    0.682925163    0.907038942    0.026531283
   4  C       6.00   -0.425994258   -1.375963842    0.179809039
   5  N       7.00   -2.958606664   -1.395165686   -0.137139128
   6  S      16.00    1.214962000   -4.005384511    0.668888199
   7  H       1.00   -3.998420796    0.184535348   -0.073232893
   8  H       1.00   -3.821329139   -3.054821500    0.133734077
   9  H       1.00    2.539573243    0.902245702    0.406513255
  10  H       1.00   -1.822243459    3.349548421   -1.752697102
  11  H       1.00   -1.908380599    3.452235190    1.570535514
  12  H       1.00    2.444392692    5.371088264   -1.690429835
  13  H       1.00    0.150070783    7.247405684   -0.174187743
  14  H       1.00    2.322585615    5.495756931    1.635047475

 Bond lengths in Bohr (Angstrom)

  1- 2  2.855832960   1-12  2.053627229   1-13  2.051766605   1-14  2.055322170   2- 3  2.724640353
       ( 1.511241721)       ( 1.086732729)       ( 1.085748130)       ( 1.087629653)       ( 1.441817583)

  2-10  2.061946302   2-11  2.067821096   3- 4  2.542695039   3- 9  1.895138878   4- 5  2.552440097
       ( 1.091134993)       ( 1.094243800)       ( 1.345536269)       ( 1.002864306)       ( 1.350693131)

 4-6  3.137800014  5-7  1.892287715  5-8  1.890005233
     ( 1.660452260)     ( 1.001355535)     ( 1.000147698)

 Bond angles

  1- 2- 3  110.93444824   1- 2-10  109.63183291   1- 2-11  109.38517980   2- 1-12  111.00380871

  2- 1-13  109.94474000   2- 1-14  110.99891742   2- 3- 4  124.89286902   2- 3- 9  119.13409952

  3- 2-10  109.39937660   3- 2-11  110.12645060   3- 4- 5  115.59461765   3- 4- 6  122.25700367

  4-3-9  114.38741641   4-5-7  122.32754425   4-5-8  116.21426822   5-4-6  122.13744593

  7- 5- 8  118.51552963  10- 2-11  107.28927974  12- 1-13  108.37366584  12- 1-14  108.27715888

 13- 1-14  108.15046511

 NUCLEAR CHARGE:                   56
 NUMBER OF PRIMITIVE AOS:         233
 NUMBER OF SYMMETRY AOS:          227
 NUMBER OF CONTRACTIONS:          128   (  128A   )
 NUMBER OF INNER CORE ORBITALS:     1   (    1A   )
 NUMBER OF OUTER CORE ORBITALS:     9   (    9A   )
 NUMBER OF VALENCE ORBITALS:       32   (   32A   )


 NUCLEAR REPULSION ENERGY  293.41225290


 Eigenvalues of metric

         1 0.307E-02 0.397E-02 0.464E-02 0.492E-02 0.810E-02 0.181E-01 0.207E-01 0.235E-01


 Contracted 2-electron integrals neglected if value below      1.0D-11
 AO integral compression algorithm  1   Integral accuracy      1.0D-11

     131.858 MB (compressed) written to integral file ( 45.9%)


 NUMBER OF SORTED TWO-ELECTRON INTEGRALS:   34084896.     BUFFER LENGTH:  32768
 NUMBER OF SEGMENTS:   3  SEGMENT LENGTH:   15998004      RECORD LENGTH: 524288

 Memory used in sort:      16.56 MW

 SORT1 READ    35990442. AND WROTE    31234114. INTEGRALS IN     91 RECORDS. CPU TIME:     0.25 SEC, REAL TIME:     0.32 SEC
 SORT2 READ    31234114. AND WROTE    34084896. INTEGRALS IN    503 RECORDS. CPU TIME:     0.27 SEC, REAL TIME:     0.31 SEC

 FILE SIZES:   FILE 1:   162.7 MBYTE,  FILE 4:   381.7 MBYTE,   TOTAL:    544.4 MBYTE

 OPERATOR DM      FOR CENTER  0  COORDINATES:    0.000000    0.000000    0.000000


 **********************************************************************************************************************************
 DATASETS  * FILE   NREC   LENGTH (MB)   RECORD NAMES
              1      19      141.76       500      610      700      900      950      970     1000      129      960     1100   
                                          VAR    BASINP    GEOM    SYMINP    ZMAT    AOBASIS   BASIS     P2S    ABASIS      S 
                                         1400     1410     1200     1210     1080     1600     1650     1300     1700   
                                           T        V       H0       H01     AOSYM     SMH    MOLCAS    ERIS     OPER   

 PROGRAMS   *        TOTAL       INT
 CPU TIMES  *         2.09      2.01
 REAL TIME  *         2.74 SEC
 DISK USED  *       519.79 MB
 **********************************************************************************************************************************


 Program * Restricted Hartree-Fock

 Orbital guess generated from atomic densities. Full valence occupancy:   42

 Initial occupancy:  28

 NELEC=   56   SYM=1   MS2= 0   THRE=1.0D-08   THRD=3.2D-06   THRG=3.2D-06  HFMA2=F  DIIS_START=2   DIIS_MAX=10   DIIS_INCORE=F

 Level shifts:    0.00 (CLOSED)    0.00 (OPEN)    0.30 (GAP_MIN)

 ITER           ETOT              DE          GRAD        DDIFF     DIIS  NEXP   TIME(IT)  TIME(TOT)  DIAG
   1     -624.62423777    -624.62423777     0.00D+00     0.11D+00     0     0       0.14      0.29    start
   2     -624.70393180      -0.07969402     0.49D-02     0.14D-01     1     0       0.14      0.43    diag
   3     -624.72079242      -0.01686063     0.23D-02     0.47D-02     2     0       0.15      0.58    diag
   4     -624.72332716      -0.00253474     0.80D-03     0.17D-02     3     0       0.15      0.73    diag
   5     -624.72352149      -0.00019432     0.17D-03     0.48D-03     4     0       0.15      0.88    diag
   6     -624.72355002      -0.00002853     0.58D-04     0.20D-03     5     0       0.15      1.03    diag
   7     -624.72355222      -0.00000220     0.17D-04     0.55D-04     6     0       0.14      1.17    diag
   8     -624.72355243      -0.00000020     0.51D-05     0.16D-04     7     0       0.15      1.32    fixocc
   9     -624.72355245      -0.00000002     0.16D-05     0.51D-05     8     0       0.16      1.48    diag
  10     -624.72355245      -0.00000001     0.73D-06     0.23D-05     9     0       0.15      1.63    diag/orth
  11     -624.72355245      -0.00000000     0.27D-06     0.76D-06     0     0       0.15      1.78    diag

 Final occupancy:  28

 !RHF STATE 1.1 Energy               -624.723552453945
  RHF One-electron energy           -1439.873011902918
  RHF Two-electron energy             521.737206552095
  RHF Kinetic energy                  624.666329868251
  RHF Nuclear energy                  293.412252896878
  RHF Virial quotient                  -1.000091605042

 !RHF STATE 1.1 Dipole moment          -1.16703977     2.16730439    -0.07979518
 Dipole moment /Debye                  -2.96631921     5.50873828    -0.20281911

 Orbital energies:

           1.1          2.1          3.1          4.1          5.1          6.1          7.1          8.1          9.1         10.1
    -91.866209   -15.598680   -15.597286   -11.366853   -11.292801   -11.249319    -8.871226    -6.553958    -6.550376    -6.549709

          11.1         12.1         13.1         14.1         15.1         16.1         17.1         18.1         19.1         20.1
     -1.317095    -1.208666    -1.058583    -0.961991    -0.870350    -0.824766    -0.743616    -0.682656    -0.671311    -0.644548

          21.1         22.1         23.1         24.1         25.1         26.1         27.1         28.1         29.1         30.1
     -0.572244    -0.569006    -0.541239    -0.517852    -0.488345    -0.416951    -0.307516    -0.306120     0.160198     0.167014


 HOMO     28.1    -0.306120 =      -8.3299eV
 LUMO     29.1     0.160198 =       4.3592eV
 LUMO-HOMO         0.466318 =      12.6892eV

 Orbitals saved in record  2100.2


 **********************************************************************************************************************************
 DATASETS  * FILE   NREC   LENGTH (MB)   RECORD NAMES
              1      19      141.76       500      610      700      900      950      970     1000      129      960     1100   
                                          VAR    BASINP    GEOM    SYMINP    ZMAT    AOBASIS   BASIS     P2S    ABASIS      S 
                                         1400     1410     1200     1210     1080     1600     1650     1300     1700   
                                           T        V       H0       H01     AOSYM     SMH    MOLCAS    ERIS     OPER   

              2       4        0.86       700     1000      520     2100   
                                         GEOM     BASIS   MCVARS     RHF  

 PROGRAMS   *        TOTAL    HF-SCF       INT
 CPU TIMES  *         3.87      1.78      2.01
 REAL TIME  *         4.66 SEC
 DISK USED  *       519.79 MB
 **********************************************************************************************************************************


 PROGRAM * PAPT (Closed-shell)     Authors: C. Hampel, H.-J. Werner, 1991, P.J. Knowles, 2021


 CORETYPE=SMALL

 Convergence thresholds:  THRVAR = 1.00D-08  THRDEN = 1.00D-06

 Number of core orbitals:           1 (   1 )
 Number of closed-shell orbitals:  27 (  27 )
 Number of external orbitals:     100 ( 100 )

 Molecular orbitals read from record     2100.2  Type=RHF/CANONICAL  

 Checking core orbitals using projection, core_type=SMALL
 Threshold for active space selection:  0.30


  Number of target functions:              1

 Number of N-1 electron functions:              27
 Number of N-2 electron functions:             378
 Number of singly external CSFs:              2700
 Number of doubly external CSFs:           3646350
 Total number of CSFs:                     3649051

 Length of J-op  integral file:               0.00 MB
 Length of K-op  integral file:               1.19 MB

 Integral transformation finished. Total CPU:   0.87 sec, npass=  1  Memory used:  10.24 MW

 Reference energy:                   -624.72355245

                        CORR.ENERGY   TOTAL ENERGY   ENERGY CHANGE
 MP2:                   -0.89951753  -625.62306998    -0.89951753

 SCS-MP2 correlation energy:           -0.88061335   (PS=  1.200000  PT=  0.333333)
 SCS-MP2 total energy:               -625.60416580
 Iteration:   1     0.2216D+00
 Iteration:   2     0.5997D+00
 Iteration:   3     0.8565D-01
 Iteration:   4     0.2922D+00
 Iteration:   5     0.3683D-01
 Iteration:   6     0.1615D+00
 Iteration:   7     0.2411D-01
 Iteration:   8     0.4679D-01
 Iteration:   9     0.2323D-01
 Iteration:  10     0.1302D-01
 Iteration:  11     0.3490D-01
 Iteration:  12     0.6339D-02
 Iteration:  13     0.2322D-01
 Iteration:  14     0.3051D-02
 Iteration:  15     0.3567D-02
 Iteration:  16     0.1406D-02
 Iteration:  17     0.7926D-03
 Iteration:  18     0.1216D-02
 Iteration:  19     0.2956D-03
 Iteration:  20     0.3707D-02
 Iteration:  21     0.1814D-03
 Iteration:  22     0.2005D-02
 Iteration:  23     0.1329D-03
 Iteration:  24     0.9218D-03
 Iteration:  25     0.5430D-04
 PAPT operator written to  7000.1
 PAPT orbitals and eigenvalues written to  7000.2

 MP3(D):                -0.94601919  -625.66957165    -0.04650166



 RESULTS
 =======

  Reference energy                   -624.723552453945

  Correlated core orbitals:             2.1       3.1       4.1       5.1       6.1       7.1       8.1       9.1      10.1
  Orbital energies:                   -15.5987  -15.5973  -11.3669  -11.2928  -11.2493   -8.8712   -6.5540   -6.5504   -6.5497

  MP3 core-core energy                 -0.006914127738
  MP3 core-valence energy              -0.012883084266
  MP3 valence correlation energy       -0.926221979357

  MP3 singlet pair energy              -0.621449816199
  MP3 triplet pair energy              -0.324569375161
  MP3 correlation energy               -0.946019191360

 !MP3 total energy                   -625.669571645305

 Timing summary (sec):

 STEP                 CPU(USER)    SYS     CPU(TOT)    WALL
 Transformation          0.97      0.08      1.05      1.06
 CCSD iterations        35.65      0.16     35.81     31.91

 Program statistics:

 Available memory in ccsd:              3145725056
 Min. memory needed in ccsd:               9487275
 Max. memory used in ccsd:                12827607
 Max. memory used in cckext:              12789552 ( 1 integral passes)



 **********************************************************************************************************************************
 DATASETS  * FILE   NREC   LENGTH (MB)   RECORD NAMES
              1      21      213.14       500      610      700      900      950      970     1000      129      960     1100   
                                          VAR    BASINP    GEOM    SYMINP    ZMAT    AOBASIS   BASIS     P2S    ABASIS      S 
                                         1400     1410     1200     1210     1080     1600     1650     1300     1700     1380   
                                           T        V       H0       H01     AOSYM     SMH    MOLCAS    ERIS     OPER     JKOP   
                                         7000   
                                        PAPT AO    

              2       5        1.33       700     1000      520     2100     7000   
                                         GEOM     BASIS   MCVARS     RHF     PAPT   

 PROGRAMS   *        TOTAL      PAPT    HF-SCF       INT
 CPU TIMES  *        36.55     32.68      1.78      2.01
 REAL TIME  *        37.66 SEC
 DISK USED  *       519.79 MB
 **********************************************************************************************************************************


 PROGRAM * MP4 (Closed-shell)     Authors: C. Hampel, H.-J. Werner, 1991, M. Deegan, P.J. Knowles, 1992


 CORETYPE=SMALL

 Convergence thresholds:  THRVAR = 1.00D-08  THRDEN = 1.00D-06

 MP4(T)     terms to be evaluated (factor= 0.000)


 Number of core orbitals:           1 (   1 )
 Number of closed-shell orbitals:  27 (  27 )
 Number of external orbitals:     100 ( 100 )

 Molecular orbitals read from record     7000.2  Type=PAPT/CANONICAL (state 1.1)

 Checking core orbitals using projection, core_type=SMALL
 Threshold for active space selection:  0.30


  Number of target functions:              1

 Number of N-1 electron functions:              27
 Number of N-2 electron functions:             378
 Number of singly external CSFs:              2700
 Number of doubly external CSFs:           3646350
 Total number of CSFs:                     3649051

 Length of J-op  integral file:               0.00 MB
 Length of K-op  integral file:               1.19 MB

 Memory could be reduced to 38.73 Mwords without degradation in triples

 Integral transformation finished. Total CPU:   1.59 sec, npass=  1  Memory used:  39.83 MW
 Orbital energies read from record       7000.2  Type=PAPT/CANONICAL (state 1.1)

 Reference energy:                   -624.72355245

                        CORR.ENERGY   TOTAL ENERGY   ENERGY CHANGE
 MP2:                   -0.95542709  -625.67897955    -0.95542709

 SCS-MP2 correlation energy:           -0.94087909   (PS=  1.200000  PT=  0.333333)
 SCS-MP2 total energy:               -625.66443154

 MP3(D):                -0.95592827  -625.67948073    -0.00050118
 MP4(DQ):               -0.94837381  -625.67192627     0.00755446
 MP4(SDQ):              -0.95584023  -625.67939269    -0.00746642

 Norm of t1 vector:      0.08170772      S-energy:    -0.00746642      T1 diagnostic:  0.00786233

 Largest off-diagonal element in interal  block of Fock matrix:  0.83D-01
 Largest off-diagonal element in external block of Fock matrix:  0.12D+00


 Total CPU time for triples:     90.48 sec


 RESULTS
 =======

  Reference energy                   -624.723552453945

  Correlated core orbitals:             2.1       3.1       4.1       5.1       6.1       7.1       8.1       9.1      10.1
  Orbital energies:                   -15.9896  -16.0279  -11.4763  -11.3848  -11.3245   -9.4274   -6.8825   -7.0304   -7.0627

  MP4(SDQ) core-core energy            -0.006975766731
  MP4(SDQ) core-valence energy         -0.012780923111
  MP4(SDQ) valence correlation ener    -0.936083541338

  MP4(SDQ) singlet pair energy         -0.625097134017
  MP4(SDQ) triplet pair energy         -0.323276679045
  MP4(SDQ) correlation energy          -0.955840231180

  Triples contribution                 -0.034852741315
  Total correlation energy             -0.990692972495

  MP4(SDQ) total energy              -625.679392685126
 !MP4(SDTQ) total energy             -625.714245426441

 Timing summary (sec):

 STEP                 CPU(USER)    SYS     CPU(TOT)    WALL
 Transformation          1.84      0.20      2.04      2.02
 CCSD iterations        53.92      0.13     54.05     17.50
 Triples                90.48      4.42     94.90     95.62

 Program statistics:

 Available memory in ccsd:              3145725056
 Min. memory needed in ccsd:               9487275
 Max. memory used in ccsd:                12827607
 Max. memory used in cckext:              12789552 ( 1 integral passes)



 **********************************************************************************************************************************
 DATASETS  * FILE   NREC   LENGTH (MB)   RECORD NAMES
              1      22      317.17       500      610      700      900      950      970     1000      129      960     1100   
                                          VAR    BASINP    GEOM    SYMINP    ZMAT    AOBASIS   BASIS     P2S    ABASIS      S 
                                         1400     1410     1200     1210     1080     1600     1650     1300     1700     1380   
                                           T        V       H0       H01     AOSYM     SMH    MOLCAS    ERIS     OPER     JKOP   
                                         7000     1380(1)
                                        PAPT AO   JKOP   

              2       5        1.33       700     1000      520     2100     7000   
                                         GEOM     BASIS   MCVARS     RHF     PAPT   

 PROGRAMS   *        TOTAL       MP4      PAPT    HF-SCF       INT
 CPU TIMES  *       146.17    109.62     32.68      1.78      2.01
 REAL TIME  *       152.84 SEC
 DISK USED  *       637.20 MB
 **********************************************************************************************************************************

 Dump information in style XML to xml output                                                                      

 Orbitals will not be exported.

 **********************************************************************************************************************************

 MP4/cc-pVDZ energy=   -625.714245426441

             MP4            PAPT          HF-SCF
   -625.71424543   -625.66957165   -624.72355245
 **********************************************************************************************************************************
 Molpro calculation terminated
