
 Working directory              : /var/folders/2v/xbgp75_9785319ghcgb4zr4r0000gr/T//molpro.Xv55nWzIQC/
 Global scratch directory       : /var/folders/2v/xbgp75_9785319ghcgb4zr4r0000gr/T//molpro.Xv55nWzIQC/
 Wavefunction directory         : /Users/peterk/wfu/
 Main file repository           : /var/folders/2v/xbgp75_9785319ghcgb4zr4r0000gr/T//molpro.Xv55nWzIQC/

 id        : peterk

 Nodes        nprocs
 pjk2022.local    1
 GA implementation: MPI file
 GA implementation (serial work in mppx): MPI file

 Using customized tuning parameters: mindgm=1; mindgv=20; mindgc=4; mindgr=1; noblas=0; minvec=7
 default implementation of scratch files=df  


 Variables initialized (1037), CPU time= 0.00 sec
 
 
 
 geometry={
 16
  C    -1.4452769   -0.8945789   -0.6530359
  C    -2.8286860   -0.8908769   -0.3684307
  C    -3.1375070   -0.1063297    0.6981435
  S    -1.7527144    0.6275104    1.3600308
  C    -0.7193656   -0.1162480    0.2025179
  C     0.7193656    0.1162480    0.2025179
  S     1.7527144   -0.6275104    1.3600308
  C     3.1375070    0.1063297    0.6981435
  C     2.8286860    0.8908769   -0.3684307
  C     1.4452769    0.8945789   -0.6530359
  H    -0.9873115   -1.4593053   -1.4471042
  H    -3.5595255   -1.4521636   -0.9249949
  H    -4.1032541    0.0746008    1.1328736
  H     4.1032541   -0.0746008    1.1328736
  H     3.5595255    1.4521636   -0.9249949
  H     0.9873115    1.4593053   -1.4471042
 }
 basis=cc-pVTZ
 core,small
 
 
 hf; ccsd(t)
 
 
 
 {put,xml;noorbitals,nobasis}
 Commands initialized (841), CPU time= 0.00 sec, 716 directives.
 Default parameters read. Elapsed time= 0.06 sec

 Checking input...
 Passed
1


                                         ***  PROGRAM SYSTEM MOLPRO  ***
                                       Copyright, TTI GmbH Stuttgart, 2015
                                    Version 2023.1 linked Sat Jul 22 07:59:25 2023


 **********************************************************************************************************************************
 LABEL *                                                                                                                                                                 
  64 bit serial version                                                                  DATE: 02-Aug-23          TIME: 14:32:50  
 **********************************************************************************************************************************

 SHA1:             401d111a1dbfa49388eacdf0424f85138b2d30d0
 **********************************************************************************************************************************

 Memory per process:      3146 MW
 Total memory per node:   4194 MW
 Total GA space:          1049 MW

 GA preallocation disabled
 GA check enabled

 Geometry recognized as XYZ


 Variable memory set to 3145.7 MW

 SETTING BASIS          =    CC-PVTZ


 Recomputing integrals since basis changed


 Using spherical harmonics

 Library entry C      S cc-pVTZ              selected for orbital group  1
 Library entry C      P cc-pVTZ              selected for orbital group  1
 Library entry C      D cc-pVTZ              selected for orbital group  1
 Library entry C      F cc-pVTZ              selected for orbital group  1
 Library entry S      S cc-pVTZ              selected for orbital group  2
 Library entry S      P cc-pVTZ              selected for orbital group  2
 Library entry S      D cc-pVTZ              selected for orbital group  2
 Library entry S      F cc-pVTZ              selected for orbital group  2
 Library entry H      S cc-pVTZ              selected for orbital group  4
 Library entry H      P cc-pVTZ              selected for orbital group  4
 Library entry H      D cc-pVTZ              selected for orbital group  4


 PROGRAM * SEWARD (Integral evaluation for generally contracted gaussian basis sets)     Author: Roland Lindh, 1990

 Geometry written to block  1 of record 700


 Point group  C2  



 ATOMIC COORDINATES

 NR  ATOM    CHARGE       X              Y              Z

   1  C       6.00   -2.731177515   -1.690509118   -1.234059001
   2  C       6.00    2.731177515    1.690509118   -1.234059001
   3  C       6.00   -5.345441833   -1.683513352   -0.696233119
   4  C       6.00    5.345441833    1.683513352   -0.696233119
   5  C       6.00   -5.929028944   -0.200934012    1.319300011
   6  C       6.00    5.929028944    0.200934012    1.319300011
   7  S      16.00   -3.312150191    1.185822796    2.570085733
   8  S      16.00    3.312150191   -1.185822796    2.570085733
   9  C       6.00   -1.359403967   -0.219676883    0.382703366
  10  C       6.00    1.359403967    0.219676883    0.382703366
  11  H       1.00   -1.865748335   -2.757687349   -2.734630612
  12  H       1.00    1.865748335    2.757687349   -2.734630612
  13  H       1.00   -6.726528329   -2.744191492   -1.747987028
  14  H       1.00    6.726528329    2.744191492   -1.747987028
  15  H       1.00   -7.754026469    0.140975081    2.140820838
  16  H       1.00    7.754026469   -0.140975081    2.140820838

 Bond lengths in Bohr (Angstrom)

  1- 3  2.669022956   1- 9  2.580509772   1-11  2.034588952   2- 4  2.669022956   2-10  2.580509772
       ( 1.412386124)       ( 1.365546964)       ( 1.076658107)       ( 1.412386124)       ( 1.365546964)

  2-12  2.034588952   3- 5  2.569239034   3-13  2.034360910   4- 6  2.569239034   4-14  2.034360910
       ( 1.076658107)       ( 1.359582746)       ( 1.076537432)       ( 1.359582746)       ( 1.076537432)

  5- 7  3.214904941   5-15  2.030372937   6- 8  3.214904941   6-16  2.030372937   7- 9  3.251659388
       ( 1.701254430)       ( 1.074427088)       ( 1.701254430)       ( 1.074427088)       ( 1.720704046)

  8-10  3.251659388   9-10  2.754078488
       ( 1.720704046)       ( 1.457395573)

 Bond angles

  1- 3- 5  112.46230466   1- 3-13  124.01480945   1- 9- 7  110.40116117   1- 9-10  128.00351603

  2- 4- 6  112.46230466   2- 4-14  124.01480945   2-10- 8  110.40116117   2-10- 9  128.00351603

  3- 1- 9  113.13757513   3- 1-11  124.51511126   3- 5- 7  111.66823058   3- 5-15  128.22542985

  4- 2-10  113.13757513   4- 2-12  124.51511126   4- 6- 8  111.66823058   4- 6-16  128.22542985

  5- 3-13  123.52048614   5- 7- 9   92.33038036   6- 4-14  123.52048614   6- 8-10   92.33038036

  7- 5-15  120.10524249   7- 9-10  121.59373675   8- 6-16  120.10524249   8-10- 9  121.59373675

  9- 1-11  122.33922238  10- 2-12  122.33922238

 NUCLEAR CHARGE:                   86
 NUMBER OF PRIMITIVE AOS:         606
 NUMBER OF SYMMETRY AOS:          550
 NUMBER OF CONTRACTIONS:          392   (  196A   +  196B   )
 NUMBER OF INNER CORE ORBITALS:     2   (    1A   +    1B   )
 NUMBER OF OUTER CORE ORBITALS:    16   (    8A   +    8B   )
 NUMBER OF VALENCE ORBITALS:       46   (   23A   +   23B   )


 NUCLEAR REPULSION ENERGY  636.42912433


 Eigenvalues of metric

         1 0.990E-04 0.474E-03 0.702E-03 0.906E-03 0.977E-03 0.120E-02 0.126E-02 0.132E-02
         2 0.951E-04 0.130E-03 0.564E-03 0.762E-03 0.936E-03 0.103E-02 0.126E-02 0.135E-02


 Contracted 2-electron integrals neglected if value below      1.0D-11
 AO integral compression algorithm  1   Integral accuracy      1.0D-11

     6318.195 MB (compressed) written to integral file ( 47.5%)


 NUMBER OF SORTED TWO-ELECTRON INTEGRALS: 1490905850.     BUFFER LENGTH:  32768
 NUMBER OF SEGMENTS:  47  SEGMENT LENGTH:   31999968      RECORD LENGTH: 524288

 Memory used in sort:      32.56 MW

 SORT1 READ  1662272448. AND WROTE  1443407924. INTEGRALS IN   4153 RECORDS. CPU TIME:    15.17 SEC, REAL TIME:    19.83 SEC
 SORT2 READ  1443407924. AND WROTE  1490905850. INTEGRALS IN  24102 RECORDS. CPU TIME:     8.49 SEC, REAL TIME:    18.68 SEC

 FILE SIZES:   FILE 1:  6352.3 MBYTE,  FILE 4: 17419.0 MBYTE,   TOTAL:  23771.3 MBYTE

 OPERATOR DM      FOR CENTER  0  COORDINATES:    0.000000    0.000000    0.000000


 **********************************************************************************************************************************
 DATASETS  * FILE   NREC   LENGTH (MB)   RECORD NAMES
              1      19     5682.71       500      610      700      900      950      970     1000      129      960     1100   
                                          VAR    BASINP    GEOM    SYMINP    ZMAT    AOBASIS   BASIS     P2S    ABASIS      S 
                                         1400     1410     1200     1210     1080     1600     1650     1300     1700   
                                           T        V       H0       H01     AOSYM     SMH    MOLCAS    ERIS     OPER   

 PROGRAMS   *        TOTAL       INT
 CPU TIMES  *        71.78     71.69
 REAL TIME  *        91.18 SEC
 DISK USED  *        22.14 GB
 **********************************************************************************************************************************


 Program * Restricted Hartree-Fock

 Orbital guess generated from atomic densities. Full valence occupancy:   32  32

 Initial occupancy:  22  21

 NELEC=   86   SYM=1   MS2= 0   THRE=1.0D-08   THRD=3.2D-06   THRG=3.2D-06  HFMA2=F  DIIS_START=2   DIIS_MAX=10   DIIS_INCORE=F

 Level shifts:    0.00 (CLOSED)    0.00 (OPEN)    0.30 (GAP_MIN)

 ITER           ETOT              DE          GRAD        DDIFF     DIIS  NEXP   TIME(IT)  TIME(TOT)  DIAG
   1    -1101.47285239   -1101.47285239     0.00D+00     0.63D-01     0     0       4.18      7.87    start
   2    -1101.56375728      -0.09090490     0.33D-02     0.60D-02     1     0       4.08     11.95    diag
   3    -1101.59445968      -0.03070240     0.20D-02     0.24D-02     2     0       4.12     16.07    diag
   4    -1101.59859816      -0.00413848     0.52D-03     0.11D-02     3     0       4.11     20.18    diag
   5    -1101.59898935      -0.00039120     0.17D-03     0.26D-03     4     0       4.29     24.47    diag
   6    -1101.59912902      -0.00013966     0.82D-04     0.15D-03     5     0       4.02     28.49    diag
   7    -1101.59917317      -0.00004415     0.34D-04     0.10D-03     6     0       4.14     32.63    diag
   8    -1101.59917846      -0.00000529     0.13D-04     0.35D-04     7     0       4.12     36.75    fixocc
   9    -1101.59917892      -0.00000046     0.41D-05     0.12D-04     8     0       4.07     40.82    diag
  10    -1101.59917895      -0.00000003     0.10D-05     0.25D-05     9     0       4.37     45.19    diag/orth
  11    -1101.59917895      -0.00000000     0.42D-06     0.95D-06     9     0       4.18     49.37    diag
  12    -1101.59917895      -0.00000000     0.12D-06     0.22D-06     0     0       4.16     53.53    diag

 Final occupancy:  22  21

 !RHF STATE 1.1 Energy              -1101.599178954379
  RHF One-electron energy           -2778.513863259283
  RHF Two-electron energy            1040.485559974562
  RHF Kinetic energy                 1101.412621454060
  RHF Nuclear energy                  636.429124330343
  RHF Virial quotient                  -1.000169380209

 !RHF STATE 1.1 Dipole moment           0.00000000     0.00000000    -0.42040590
 Dipole moment /Debye                   0.00000000     0.00000000    -1.06856522

 Orbital energies:

           1.1          2.1          3.1          4.1          5.1          6.1          7.1          8.1          9.1         10.1
    -91.982107   -11.271244   -11.259639   -11.236839   -11.235127    -8.983946    -6.664902    -6.664346    -6.663580    -1.196013

          11.1         12.1         13.1         14.1         15.1         16.1         17.1         18.1         19.1         20.1
     -1.034006    -0.991709    -0.804850    -0.765274    -0.704064    -0.572776    -0.565079    -0.535482    -0.512938    -0.475974

          21.1         22.1         23.1         24.1
     -0.353306    -0.314324     0.120085     0.151652

           1.2          2.2          3.2          4.2          5.2          6.2          7.2          8.2          9.2         10.2
    -91.982107   -11.270432   -11.259639   -11.236840   -11.235127    -8.983947    -6.664902    -6.664346    -6.663580    -1.168957

          11.2         12.2         13.2         14.2         15.2         16.2         17.2         18.2         19.2         20.2
     -0.987969    -0.952412    -0.759016    -0.718985    -0.645653    -0.565481    -0.555187    -0.513337    -0.473830    -0.343214

          21.2         22.2         23.2
     -0.338899     0.104142     0.150826


 HOMO     22.1    -0.314324 =      -8.5532eV
 LUMO     22.2     0.104142 =       2.8338eV
 LUMO-HOMO         0.418465 =      11.3870eV

 Orbitals saved in record  2100.2


 **********************************************************************************************************************************
 DATASETS  * FILE   NREC   LENGTH (MB)   RECORD NAMES
              1      19     5682.71       500      610      700      900      950      970     1000      129      960     1100   
                                          VAR    BASINP    GEOM    SYMINP    ZMAT    AOBASIS   BASIS     P2S    ABASIS      S 
                                         1400     1410     1200     1210     1080     1600     1650     1300     1700   
                                           T        V       H0       H01     AOSYM     SMH    MOLCAS    ERIS     OPER   

              2       4        1.88       700     1000      520     2100   
                                         GEOM     BASIS   MCVARS     RHF  

 PROGRAMS   *        TOTAL    HF-SCF       INT
 CPU TIMES  *       125.31     53.53     71.69
 REAL TIME  *       154.04 SEC
 DISK USED  *        22.14 GB
 **********************************************************************************************************************************


 PROGRAM * CCSD (Closed-shell coupled cluster)     Authors: C. Hampel, H.-J. Werner, 1991, M. Deegan, P.J. Knowles, 1992


 CORETYPE=SMALL

 Convergence thresholds:  THRVAR = 1.00D-08  THRDEN = 1.00D-06

 CCSD(T)     terms to be evaluated (factor= 1.000)


 Number of core orbitals:           2 (   1   1 )
 Number of closed-shell orbitals:  41 (  21  20 )
 Number of external orbitals:     349 ( 174 175 )

 Molecular orbitals read from record     2100.2  Type=RHF/CANONICAL  

 Checking core orbitals using projection, core_type=SMALL
 Threshold for active space selection:  0.30


 Number of target functions:              2   (   1   1 )

 Number of N-1 electron functions:              41
 Number of N-2 electron functions:             861
 Number of singly external CSFs:              7154
 Number of doubly external CSFs:          51194025
 Total number of CSFs:                    51201180

 Length of J-op  integral file:               0.00 MB
 Length of K-op  integral file:               5.34 MB
 Length of 3-ext integral record:             0.00 MB

 Memory could be reduced to 1038.85 Mwords without degradation in triples

 Integral transformation finished. Total CPU: 148.08 sec, npass=  1  Memory used: 546.61 MW

 Reference energy:                  -1101.59917895

 MP2 singlet pair energy:              -1.11681636
 MP2 triplet pair energy:              -0.69373889
 MP2 correlation energy:               -1.81055525
 MP2 total energy:                  -1103.40973420

 SCS-MP2 correlation energy:           -1.77183938   (PS=  1.200000  PT=  0.333333)
 SCS-MP2 total energy:              -1103.37101834

 ITER.      SQ.NORM     CORR.ENERGY   TOTAL ENERGY   ENERGY CHANGE        DEN1      VAR(S)    VAR(P)  DIIS     TIME  TIME/IT
   1      1.58152198    -1.83610322 -1103.43528218    -0.02554798     0.02404518  0.92D-02  0.15D-01  1  1   532.03   260.47
   2      1.62298495    -1.83962601 -1103.43880496    -0.00352278    -0.04336654  0.18D-03  0.15D-02  2  2   834.51   291.09
   3      1.63694279    -1.83937896 -1103.43855792     0.00024705    -0.00658383  0.14D-03  0.11D-03  3  3  1139.01   300.80
   4      1.64312656    -1.83933968 -1103.43851863     0.00003929    -0.00226621  0.15D-04  0.19D-04  4  4  1435.53   302.56
   5      1.64560349    -1.83939362 -1103.43857258    -0.00005394    -0.00056235  0.57D-05  0.17D-05  5  5  1756.77   311.46
   6      1.64634134    -1.83937746 -1103.43855642     0.00001616    -0.00005851  0.11D-05  0.32D-06  6  6  2082.86   317.44
   7      1.64658040    -1.83937161 -1103.43855057     0.00000585    -0.00001612  0.32D-06  0.82D-07  6  2  2380.63   315.64
   8      1.64668813    -1.83936773 -1103.43854668     0.00000389    -0.00000692  0.52D-07  0.19D-07  6  1  2679.16   315.42
   9      1.64672300    -1.83936624 -1103.43854519     0.00000149     0.00000458  0.30D-08  0.41D-08  6  4  2980.20   314.87
  10      1.64673397    -1.83936609 -1103.43854504     0.00000015    -0.00000148  0.69D-09  0.32D-09  6  3  3268.20   313.12
  11      1.64673539    -1.83936612 -1103.43854507    -0.00000003     0.00000055  0.98D-10  0.52D-10  6  5  3566.19   312.91

 Norm of t1 vector:      0.13151345      S-energy:     0.00000022      T1 diagnostic:  0.01026947
                                                                       D1 diagnostic:  0.03948900
                                                                       D2 diagnostic:  0.19051856 (internal)

   CPU time for triples:   2051.42 sec for i =  1 - 21 / 41 (~  14.2 % done)
   CPU time for triples:   2219.91 sec for i = 22 - 27 / 41 (~  29.5 % done)
   CPU time for triples:   2393.84 sec for i = 28 - 31 / 41 (~  44.1 % done)
   CPU time for triples:   2474.47 sec for i = 32 - 35 / 41 (~  62.9 % done)
   CPU time for triples:   1995.62 sec for i = 36 - 38 / 41 (~  80.0 % done)
   CPU time for triples:   2341.23 sec for i = 39 - 41 / 41 (  100.0 % done)

 Total CPU time for triples:  13476.49 sec


 RESULTS
 =======

  Reference energy                  -1101.599178954382

  Correlated core orbitals:             2.1       3.1       4.1       5.1       6.1       7.1       8.1       9.1       2.2       3.2
                                        4.2       5.2       6.2       7.2       8.2       9.2
  Orbital energies:                   -11.2712  -11.2596  -11.2368  -11.2351   -8.9839   -6.6649   -6.6643   -6.6636  -11.2704  -11.2596
                                      -11.2368  -11.2351   -8.9839   -6.6649   -6.6643   -6.6636

  CCSD core-core energy                -0.128896189727
  CCSD core-valence energy             -0.075618970598
  CCSD valence correlation energy      -1.634850958790

  CCSD singlet pair energy             -1.219168806714
  CCSD triplet pair energy             -0.620197537052
  CCSD correlation energy              -1.839366119116

  Triples (T) contribution             -0.098442846541
  Total correlation energy             -1.937808965657

  CCSD total energy                 -1103.438545073498
  CCSD[T] energy                    -1103.539118381893
  CCSD-T energy                     -1103.536116282326
 !CCSD(T) total energy              -1103.536987920039

 Timing summary (sec):

 STEP                 CPU(USER)    SYS     CPU(TOT)    WALL
 Transformation        149.67     13.58    163.25    175.35
 CCSD iterations      3418.34    106.76   3525.10   3444.36
 Triples             13476.49    412.66  13889.15  14445.47

 Program statistics:

 Available memory in ccsd:              3145721254
 Min. memory needed in ccsd:             115807495
 Max. memory used in ccsd:               165099878
 Max. memory used in cckext:             140604316 (11 integral passes)



 **********************************************************************************************************************************
 DATASETS  * FILE   NREC   LENGTH (MB)   RECORD NAMES
              1      20     9775.36       500      610      700      900      950      970     1000      129      960     1100   
                                          VAR    BASINP    GEOM    SYMINP    ZMAT    AOBASIS   BASIS     P2S    ABASIS      S 
                                         1400     1410     1200     1210     1080     1600     1650     1300     1700     1380   
                                           T        V       H0       H01     AOSYM     SMH    MOLCAS    ERIS     OPER     JKOP   

              2       4        1.88       700     1000      520     2100   
                                         GEOM     BASIS   MCVARS     RHF  

 PROGRAMS   *        TOTAL   CCSD(T)    HF-SCF       INT
 CPU TIMES  *     17044.43  16919.12     53.53     71.69
 REAL TIME  *     18219.37 SEC
 DISK USED  *        22.14 GB
 **********************************************************************************************************************************

 Dump information in style XML to xml output                                                                      

 Orbitals will not be exported.

 **********************************************************************************************************************************

 CCSD(T)/cc-pVTZ energy=  -1103.536987920039

         CCSD(T)          HF-SCF
  -1103.53698792  -1101.59917895
 **********************************************************************************************************************************
 Molpro calculation terminated
