
 Working directory              : /var/folders/2v/xbgp75_9785319ghcgb4zr4r0000gr/T//molpro.fR4vSk6Qfv/
 Global scratch directory       : /var/folders/2v/xbgp75_9785319ghcgb4zr4r0000gr/T//molpro.fR4vSk6Qfv/
 Wavefunction directory         : /Users/peterk/wfu/
 Main file repository           : /var/folders/2v/xbgp75_9785319ghcgb4zr4r0000gr/T//molpro.fR4vSk6Qfv/

 id        : peterk

 Nodes        nprocs
 pjk2022.local    1
 GA implementation: MPI file
 GA implementation (serial work in mppx): MPI file

 Using customized tuning parameters: mindgm=1; mindgv=20; mindgc=4; mindgr=1; noblas=0; minvec=7
 default implementation of scratch files=df  


 Variables initialized (1037), CPU time= 0.01 sec
 
 
 
 geometry={
 16
  C    -1.4595330   -1.1910594    0.1600327
  C    -2.8488073   -0.9628516    0.0993153
  C    -3.1539559    0.3260872   -0.2060017
  S    -1.7497644    1.2592017   -0.4444530
  C    -0.7185117   -0.0716168   -0.1000887
  C     0.7185117    0.0716168   -0.1000887
  S     1.7497644   -1.2592017   -0.4444530
  C     3.1539559   -0.3260872   -0.2060017
  C     2.8488073    0.9628516    0.0993153
  C     1.4595330    1.1910594    0.1600327
  H    -1.0099655   -2.1339875    0.4228504
  H    -3.5907346   -1.7189217    0.2898715
  H    -4.1235319    0.7747989   -0.3122418
  H     4.1235319   -0.7747989   -0.3122418
  H     3.5907346    1.7189217    0.2898715
  H     1.0099655    2.1339875    0.4228504
 }
 basis=cc-pVDZ
 core,small
 
 
 hf; ccsd(t)
 
 
 
 {put,xml;noorbitals,nobasis}
 Commands initialized (841), CPU time= 0.00 sec, 716 directives.
 Default parameters read. Elapsed time= 0.06 sec

 Checking input...
 Passed
1


                                         ***  PROGRAM SYSTEM MOLPRO  ***
                                       Copyright, TTI GmbH Stuttgart, 2015
                                    Version 2023.1 linked Sat Jul 22 07:59:25 2023


 **********************************************************************************************************************************
 LABEL *                                                                                                                                                                 
  64 bit serial version                                                                  DATE: 02-Aug-23          TIME: 10:58:53  
 **********************************************************************************************************************************

 SHA1:             401d111a1dbfa49388eacdf0424f85138b2d30d0
 **********************************************************************************************************************************

 Memory per process:      3146 MW
 Total memory per node:   4194 MW
 Total GA space:          1049 MW

 GA preallocation disabled
 GA check enabled

 Geometry recognized as XYZ


 Variable memory set to 3145.7 MW

 SETTING BASIS          =    CC-PVDZ


 Recomputing integrals since basis changed


 Using spherical harmonics

 Library entry C      S cc-pVDZ              selected for orbital group  1
 Library entry C      P cc-pVDZ              selected for orbital group  1
 Library entry C      D cc-pVDZ              selected for orbital group  1
 Library entry S      S cc-pVDZ              selected for orbital group  2
 Library entry S      P cc-pVDZ              selected for orbital group  2
 Library entry S      D cc-pVDZ              selected for orbital group  2
 Library entry H      S cc-pVDZ              selected for orbital group  4
 Library entry H      P cc-pVDZ              selected for orbital group  4


 PROGRAM * SEWARD (Integral evaluation for generally contracted gaussian basis sets)     Author: Roland Lindh, 1990

 Geometry written to block  1 of record 700


 Point group  C2  



 ATOMIC COORDINATES

 NR  ATOM    CHARGE       X              Y              Z

   1  C       6.00   -2.758117640   -2.250776064    0.302417974
   2  C       6.00    2.758117640    2.250776064    0.302417974
   3  C       6.00   -5.383465579   -1.819525823    0.187678717
   4  C       6.00    5.383465579    1.819525823    0.187678717
   5  C       6.00   -5.960112860    0.616215501   -0.389286794
   6  C       6.00    5.960112860   -0.616215501   -0.389286794
   7  S      16.00   -3.306575499    2.379546349   -0.839894445
   8  S      16.00    3.306575499   -2.379546349   -0.839894445
   9  C       6.00   -1.357790330   -0.135336138   -0.189140231
  10  C       6.00    1.357790330    0.135336138   -0.189140231
  11  H       1.00   -1.908558190   -4.032651928    0.799071448
  12  H       1.00    1.908558190    4.032651928    0.799071448
  13  H       1.00   -6.785504980   -3.248291243    0.547777746
  14  H       1.00    6.785504980    3.248291243    0.547777746
  15  H       1.00   -7.792345957    1.464157723   -0.590051487
  16  H       1.00    7.792345957   -1.464157723   -0.590051487

 Bond lengths in Bohr (Angstrom)

  1- 3  2.663004632   1- 9  2.584111477   1-11  2.035558284   2- 4  2.663004632   2-10  2.584111477
       ( 1.409201364)       ( 1.367452904)       ( 1.077171055)       ( 1.409201364)       ( 1.367452904)

  2-12  2.035558284   3- 5  2.568705332   3-13  2.033901772   4- 6  2.568705332   4-14  2.033901772
       ( 1.077171055)       ( 1.359300323)       ( 1.076294467)       ( 1.359300323)       ( 1.076294467)

  5- 7  3.217707796   5-15  2.028889005   6- 8  3.217707796   6-16  2.028889005   7- 9  3.247441855
       ( 1.702737637)       ( 1.073641825)       ( 1.702737637)       ( 1.073641825)       ( 1.718472223)

  8-10  3.247441855   9-10  2.729036791
       ( 1.718472223)       ( 1.444144077)

 Bond angles

  1- 3- 5  112.61589754   1- 3-13  123.93134747   1- 9- 7  110.29731696   1- 9-10  128.34688330

  2- 4- 6  112.61589754   2- 4-14  123.93134747   2-10- 8  110.29731696   2-10- 9  128.34688330

  3- 1- 9  113.17056137   3- 1-11  124.31411267   3- 5- 7  111.46714242   3- 5-15  128.40798942

  4- 2-10  113.17056137   4- 2-12  124.31411267   4- 6- 8  111.46714242   4- 6-16  128.40798942

  5- 3-13  123.44470076   5- 7- 9   92.43181715   6- 4-14  123.44470076   6- 8-10   92.43181715

  7- 5-15  120.12213301   7- 9-10  121.35444924   8- 6-16  120.12213301   8-10- 9  121.35444924

  9- 1-11  122.46990442  10- 2-12  122.46990442

 NUCLEAR CHARGE:                   86
 NUMBER OF PRIMITIVE AOS:         342
 NUMBER OF SYMMETRY AOS:          332
 NUMBER OF CONTRACTIONS:          178   (   89A   +   89B   )
 NUMBER OF INNER CORE ORBITALS:     2   (    1A   +    1B   )
 NUMBER OF OUTER CORE ORBITALS:    16   (    8A   +    8B   )
 NUMBER OF VALENCE ORBITALS:       46   (   23A   +   23B   )


 NUCLEAR REPULSION ENERGY  637.31599080

 Eigenvalues of metric

         1 0.474E-03 0.227E-02 0.291E-02 0.412E-02 0.105E-01 0.165E-01 0.186E-01 0.201E-01
         2 0.713E-03 0.883E-03 0.254E-02 0.412E-02 0.509E-02 0.120E-01 0.174E-01 0.194E-01


 Contracted 2-electron integrals neglected if value below      1.0D-11
 AO integral compression algorithm  1   Integral accuracy      1.0D-11

     303.563 MB (compressed) written to integral file ( 51.0%)


 NUMBER OF SORTED TWO-ELECTRON INTEGRALS:   64164105.     BUFFER LENGTH:  32768
 NUMBER OF SEGMENTS:   5  SEGMENT LENGTH:   15996036      RECORD LENGTH: 524288

 Memory used in sort:      16.55 MW

 SORT1 READ    74411824. AND WROTE    63687438. INTEGRALS IN    185 RECORDS. CPU TIME:     0.60 SEC, REAL TIME:     0.75 SEC
 SORT2 READ    63687438. AND WROTE    64164105. INTEGRALS IN   1158 RECORDS. CPU TIME:     0.48 SEC, REAL TIME:     0.61 SEC

 FILE SIZES:   FILE 1:   334.6 MBYTE,  FILE 4:   776.0 MBYTE,   TOTAL:   1110.6 MBYTE

 OPERATOR DM      FOR CENTER  0  COORDINATES:    0.000000    0.000000    0.000000


 **********************************************************************************************************************************
 DATASETS  * FILE   NREC   LENGTH (MB)   RECORD NAMES
              1      19      287.04       500      610      700      900      950      970     1000      129      960     1100   
                                          VAR    BASINP    GEOM    SYMINP    ZMAT    AOBASIS   BASIS     P2S    ABASIS      S 
                                         1400     1410     1200     1210     1080     1600     1650     1300     1700   
                                           T        V       H0       H01     AOSYM     SMH    MOLCAS    ERIS     OPER   

 PROGRAMS   *        TOTAL       INT
 CPU TIMES  *         5.45      5.36
 REAL TIME  *         6.40 SEC
 DISK USED  *         1.03 GB
 **********************************************************************************************************************************


 Program * Restricted Hartree-Fock

 Orbital guess generated from atomic densities. Full valence occupancy:   32  32

 Initial occupancy:  22  21

 NELEC=   86   SYM=1   MS2= 0   THRE=1.0D-08   THRD=3.2D-06   THRG=3.2D-06  HFMA2=F  DIIS_START=2   DIIS_MAX=10   DIIS_INCORE=F

 Level shifts:    0.00 (CLOSED)    0.00 (OPEN)    0.30 (GAP_MIN)

 ITER           ETOT              DE          GRAD        DDIFF     DIIS  NEXP   TIME(IT)  TIME(TOT)  DIAG
   1    -1101.37220307   -1101.37220307     0.00D+00     0.14D+00     0     0       0.17      0.33    start
   2    -1101.46211738      -0.08991431     0.49D-02     0.13D-01     1     0       0.17      0.50    diag
   3    -1101.48412794      -0.02201056     0.26D-02     0.56D-02     2     0       0.18      0.68    diag
   4    -1101.48747904      -0.00335109     0.73D-03     0.22D-02     3     0       0.16      0.84    diag
   5    -1101.48779775      -0.00031871     0.23D-03     0.53D-03     4     0       0.17      1.01    diag
   6    -1101.48791633      -0.00011858     0.11D-03     0.32D-03     5     0       0.16      1.17    diag
   7    -1101.48794819      -0.00003187     0.46D-04     0.20D-03     6     0       0.16      1.33    diag
   8    -1101.48795172      -0.00000352     0.16D-04     0.72D-04     7     0       0.17      1.50    fixocc
   9    -1101.48795191      -0.00000019     0.46D-05     0.18D-04     8     0       0.16      1.66    diag
  10    -1101.48795192      -0.00000001     0.12D-05     0.40D-05     9     0       0.16      1.82    diag/orth
  11    -1101.48795192      -0.00000000     0.49D-06     0.16D-05     9     0       0.17      1.99    diag
  12    -1101.48795192      -0.00000000     0.16D-06     0.41D-06     0     0       0.16      2.15    diag

 Final occupancy:  22  21

 !RHF STATE 1.1 Energy              -1101.487951922314
  RHF One-electron energy           -2779.855261244238
  RHF Two-electron energy            1041.051318526503
  RHF Kinetic energy                 1101.766198472115
  RHF Nuclear energy                  637.315990795421
  RHF Virial quotient                  -0.999747454088

 !RHF STATE 1.1 Dipole moment           0.00000000     0.00000000     0.15849117
 Dipole moment /Debye                   0.00000000     0.00000000     0.40284438

 Orbital energies:

           1.1          2.1          3.1          4.1          5.1          6.1          7.1          8.1          9.1         10.1
    -91.980752   -11.276745   -11.264477   -11.242020   -11.240694    -8.985705    -6.667300    -6.666278    -6.664323    -1.202043

          11.1         12.1         13.1         14.1         15.1         16.1         17.1         18.1         19.1         20.1
     -1.039939    -0.986693    -0.810373    -0.745898    -0.707512    -0.574273    -0.557656    -0.545984    -0.512556    -0.466502

          21.1         22.1         23.1         24.1
     -0.373617    -0.347241     0.084451     0.188423

           1.2          2.2          3.2          4.2          5.2          6.2          7.2          8.2          9.2         10.2
    -91.980752   -11.275901   -11.264477   -11.242020   -11.240694    -8.985704    -6.667300    -6.666278    -6.664323    -1.172893

          11.2         12.2         13.2         14.2         15.2         16.2         17.2         18.2         19.2         20.2
     -1.001289    -0.954547    -0.779988    -0.718612    -0.646111    -0.570100    -0.555284    -0.514057    -0.481429    -0.351190

          21.2         22.2         23.2
     -0.284772     0.157222     0.183854


 HOMO     21.2    -0.284772 =      -7.7490eV
 LUMO     23.1     0.084451 =       2.2980eV
 LUMO-HOMO         0.369223 =      10.0471eV

 Orbitals saved in record  2100.2


 **********************************************************************************************************************************
 DATASETS  * FILE   NREC   LENGTH (MB)   RECORD NAMES
              1      19      287.04       500      610      700      900      950      970     1000      129      960     1100   
                                          VAR    BASINP    GEOM    SYMINP    ZMAT    AOBASIS   BASIS     P2S    ABASIS      S 
                                         1400     1410     1200     1210     1080     1600     1650     1300     1700   
                                           T        V       H0       H01     AOSYM     SMH    MOLCAS    ERIS     OPER   

              2       4        0.90       700     1000      520     2100   
                                         GEOM     BASIS   MCVARS     RHF  

 PROGRAMS   *        TOTAL    HF-SCF       INT
 CPU TIMES  *         7.60      2.15      5.36
 REAL TIME  *         8.91 SEC
 DISK USED  *         1.03 GB
 **********************************************************************************************************************************


 PROGRAM * CCSD (Closed-shell coupled cluster)     Authors: C. Hampel, H.-J. Werner, 1991, M. Deegan, P.J. Knowles, 1992


 CORETYPE=SMALL

 Convergence thresholds:  THRVAR = 1.00D-08  THRDEN = 1.00D-06

 CCSD(T)     terms to be evaluated (factor= 1.000)


 Number of core orbitals:           2 (   1   1 )
 Number of closed-shell orbitals:  41 (  21  20 )
 Number of external orbitals:     135 (  67  68 )

 Molecular orbitals read from record     2100.2  Type=RHF/CANONICAL  

 Checking core orbitals using projection, core_type=SMALL
 Threshold for active space selection:  0.30


 Number of target functions:              2   (   1   1 )

 Number of N-1 electron functions:              41
 Number of N-2 electron functions:             861
 Number of singly external CSFs:              2767
 Number of doubly external CSFs:           7661824
 Total number of CSFs:                     7664592

 Length of J-op  integral file:               0.00 MB
 Length of K-op  integral file:               1.15 MB
 Length of 3-ext integral record:             0.00 MB

 Memory could be reduced to 72.08 Mwords without degradation in triples

 Integral transformation finished. Total CPU:   6.23 sec, npass=  1  Memory used:  59.75 MW

 Reference energy:                  -1101.48795192

 MP2 singlet pair energy:              -0.79169887
 MP2 triplet pair energy:              -0.55736573
 MP2 correlation energy:               -1.34906460
 MP2 total energy:                  -1102.83701652

 SCS-MP2 correlation energy:           -1.29684399   (PS=  1.200000  PT=  0.333333)
 SCS-MP2 total energy:              -1102.78479591

 ITER.      SQ.NORM     CORR.ENERGY   TOTAL ENERGY   ENERGY CHANGE        DEN1      VAR(S)    VAR(P)  DIIS     TIME  TIME/IT
   1      1.52863542    -1.38731200 -1102.87526392    -0.03824740     0.00163988  0.79D-02  0.12D-01  1  1    41.00    27.43
   2      1.56969800    -1.39321475 -1102.88116667    -0.00590275    -0.03680839  0.18D-03  0.15D-02  2  2    68.02    27.49
   3      1.58457228    -1.39326679 -1102.88121871    -0.00005204    -0.00700193  0.10D-03  0.11D-03  3  3    97.37    28.84
   4      1.59012704    -1.39335527 -1102.88130719    -0.00008847    -0.00166474  0.10D-04  0.17D-04  4  4   124.33    28.48
   5      1.59219364    -1.39339628 -1102.88134820    -0.00004101    -0.00039440  0.35D-05  0.16D-05  5  5   151.85    28.55
   6      1.59276621    -1.39337949 -1102.88133141     0.00001679    -0.00006404  0.81D-06  0.26D-06  6  6   180.32    28.72
   7      1.59294357    -1.39337545 -1102.88132737     0.00000404    -0.00001184  0.20D-06  0.80D-07  6  2   209.42    29.01
   8      1.59303272    -1.39337286 -1102.88132478     0.00000259    -0.00000591  0.49D-07  0.15D-07  6  1   240.16    30.03
   9      1.59306087    -1.39337209 -1102.88132402     0.00000076     0.00000409  0.23D-08  0.37D-08  6  4   268.88    30.68
  10      1.59307340    -1.39337186 -1102.88132379     0.00000023    -0.00000109  0.47D-09  0.37D-09  6  3   299.04    30.78

 Norm of t1 vector:      0.12739280      S-energy:    -0.00000013      T1 diagnostic:  0.00994771
                                                                       D1 diagnostic:  0.04080289
                                                                       D2 diagnostic:  0.19657873 (internal)

 Doubles amplitudes (print threshold =  0.500E-01):

         I         J         SYM. A    SYM. B    A         B      T(IJ, AB)

        41        41         1         1         1         1     -0.06235071


 Total CPU time for triples:    473.80 sec


 RESULTS
 =======

  Reference energy                  -1101.487951922313

  Correlated core orbitals:             2.1       3.1       4.1       5.1       6.1       7.1       8.1       9.1       2.2       3.2
                                        4.2       5.2       6.2       7.2       8.2       9.2
  Orbital energies:                   -11.2767  -11.2645  -11.2420  -11.2407   -8.9857   -6.6673   -6.6663   -6.6643  -11.2759  -11.2645
                                      -11.2420  -11.2407   -8.9857   -6.6673   -6.6663   -6.6643

  CCSD core-core energy                -0.013411918129
  CCSD core-valence energy             -0.021437978729
  CCSD valence correlation energy      -1.358521968066

  CCSD singlet pair energy             -0.898193743254
  CCSD triplet pair energy             -0.495177991193
  CCSD correlation energy              -1.393371864924

  Triples (T) contribution             -0.064230129478
  Total correlation energy             -1.457601994402

  CCSD total energy                 -1102.881323787236
  CCSD[T] energy                    -1102.947252473952
  CCSD-T energy                     -1102.944881400721
 !CCSD(T) total energy              -1102.945553916714

 Timing summary (sec):

 STEP                 CPU(USER)    SYS     CPU(TOT)    WALL
 Transformation          6.38      0.48      6.86      6.88
 CCSD iterations       293.28     11.69    304.97    308.65
 Triples               473.80     20.96    494.76    506.37

 Program statistics:

 Available memory in ccsd:              3145721254
 Min. memory needed in ccsd:              19638784
 Max. memory used in ccsd:                26837902
 Max. memory used in cckext:              28179657 (10 integral passes)



 **********************************************************************************************************************************
 DATASETS  * FILE   NREC   LENGTH (MB)   RECORD NAMES
              1      20      637.53       500      610      700      900      950      970     1000      129      960     1100   
                                          VAR    BASINP    GEOM    SYMINP    ZMAT    AOBASIS   BASIS     P2S    ABASIS      S 
                                         1400     1410     1200     1210     1080     1600     1650     1300     1700     1380   
                                           T        V       H0       H01     AOSYM     SMH    MOLCAS    ERIS     OPER     JKOP   

              2       4        0.90       700     1000      520     2100   
                                         GEOM     BASIS   MCVARS     RHF  

 PROGRAMS   *        TOTAL   CCSD(T)    HF-SCF       INT
 CPU TIMES  *       773.37    765.77      2.15      5.36
 REAL TIME  *       830.87 SEC
 DISK USED  *         1.83 GB
 **********************************************************************************************************************************

 Dump information in style XML to xml output                                                                      

 Orbitals will not be exported.

 **********************************************************************************************************************************

 CCSD(T)/cc-pVDZ energy=  -1102.945553916714

         CCSD(T)          HF-SCF
  -1102.94555392  -1101.48795192
 **********************************************************************************************************************************
 Molpro calculation terminated
