
 Working directory              : /var/folders/2v/xbgp75_9785319ghcgb4zr4r0000gr/T//molpro.YhGtJodP8e/
 Global scratch directory       : /var/folders/2v/xbgp75_9785319ghcgb4zr4r0000gr/T//molpro.YhGtJodP8e/
 Wavefunction directory         : /Users/peterk/wfu/
 Main file repository           : /var/folders/2v/xbgp75_9785319ghcgb4zr4r0000gr/T//molpro.YhGtJodP8e/

 id        : peterk

 Nodes        nprocs
 pjk2022.local    1
 GA implementation: MPI file
 GA implementation (serial work in mppx): MPI file

 Using customized tuning parameters: mindgm=1; mindgv=20; mindgc=4; mindgr=1; noblas=0; minvec=7
 default implementation of scratch files=df  


 Variables initialized (1037), CPU time= 0.01 sec
 
 
 
 geometry={
 8
  C     0.0000000    0.0000000   -0.7636815
  C     0.0000000    0.0000000    0.7636815
  H     1.0087494    0.0000000   -1.1676039
  H    -0.5043747   -0.8736026   -1.1676039
  H    -0.5043747    0.8736026   -1.1676039
  H     1.0087494    0.0000000    1.1676039
  H    -0.5043747    0.8736026    1.1676039
  H    -0.5043747   -0.8736026    1.1676039
 }
 basis=cc-pVTZ
 core,small
 
 
 hf; papt;mp4
 
 
 
 {put,xml;noorbitals,nobasis}
 Commands initialized (841), CPU time= 0.00 sec, 716 directives.
 Default parameters read. Elapsed time= 0.05 sec

 Checking input...
 Passed
1


                                         ***  PROGRAM SYSTEM MOLPRO  ***
                                       Copyright, TTI GmbH Stuttgart, 2015
                                    Version 2023.1 linked Sat Jul 22 07:59:25 2023


 **********************************************************************************************************************************
 LABEL *                                                                                                                                                                 
  64 bit serial version                                                                  DATE: 02-Aug-23          TIME: 02:24:34  
 **********************************************************************************************************************************

 SHA1:             401d111a1dbfa49388eacdf0424f85138b2d30d0
 **********************************************************************************************************************************

 Memory per process:      3146 MW
 Total memory per node:   4194 MW
 Total GA space:          1049 MW

 GA preallocation disabled
 GA check enabled

 Geometry recognized as XYZ


 Variable memory set to 3145.7 MW

 SETTING BASIS          =    CC-PVTZ


 Recomputing integrals since basis changed


 Using spherical harmonics

 Library entry C      S cc-pVTZ              selected for orbital group  1
 Library entry C      P cc-pVTZ              selected for orbital group  1
 Library entry C      D cc-pVTZ              selected for orbital group  1
 Library entry C      F cc-pVTZ              selected for orbital group  1
 Library entry H      S cc-pVTZ              selected for orbital group  2
 Library entry H      P cc-pVTZ              selected for orbital group  2
 Library entry H      D cc-pVTZ              selected for orbital group  2


 PROGRAM * SEWARD (Integral evaluation for generally contracted gaussian basis sets)     Author: Roland Lindh, 1990

 Geometry written to block  1 of record 700


 Point group  C2v 



 ATOMIC COORDINATES

 NR  ATOM    CHARGE       X              Y              Z

   1  C       6.00    0.000000000    0.000000000   -1.443148881
   2  C       6.00    0.000000000    0.000000000    1.443148881
   3  H       1.00    1.906260094    0.000000000   -2.206451593
   4  H       1.00    1.906260094    0.000000000    2.206451593
   5  H       1.00   -0.953130047   -1.650869656   -2.206451593
   6  H       1.00   -0.953130047    1.650869656   -2.206451593
   7  H       1.00   -0.953130047    1.650869656    2.206451593
   8  H       1.00   -0.953130047   -1.650869656    2.206451593

 Bond lengths in Bohr (Angstrom)

 1-2  2.886297763  1-3  2.053401709  1-5  2.053401699  1-6  2.053401699  2-4  2.053401709
     ( 1.527363000)     ( 1.086613389)     ( 1.086613384)     ( 1.086613384)     ( 1.086613389)

 2-7  2.053401699  2-8  2.053401699
     ( 1.086613384)     ( 1.086613384)

 Bond angles

  1-2-4  111.82210085   1-2-7  111.82210096   1-2-8  111.82210096   2-1-3  111.82210085

  2-1-5  111.82210096   2-1-6  111.82210096   3-1-5  107.02145142   3-1-6  107.02145142

  4-2-7  107.02145142   4-2-8  107.02145142   5-1-6  107.02145093   7-2-8  107.02145093

 NUCLEAR CHARGE:                   18
 NUMBER OF PRIMITIVE AOS:         196
 NUMBER OF SYMMETRY AOS:          180
 NUMBER OF CONTRACTIONS:          144   (   44A1  +   28B1  +   44B2  +   28A2  )
 NUMBER OF INNER CORE ORBITALS:     0   (    0A1  +    0B1  +    0B2  +    0A2  )
 NUMBER OF OUTER CORE ORBITALS:     2   (    1A1  +    0B1  +    1B2  +    0A2  )
 NUMBER OF VALENCE ORBITALS:       14   (    5A1  +    2B1  +    5B2  +    2A2  )


 NUCLEAR REPULSION ENERGY   42.33358783


 Eigenvalues of metric

         1 0.145E-02 0.199E-02 0.465E-02 0.108E-01 0.141E-01 0.313E-01 0.314E-01 0.358E-01
         2 0.199E-02 0.108E-01 0.313E-01 0.358E-01 0.532E-01 0.104E+00 0.133E+00 0.144E+00
         3 0.967E-03 0.144E-02 0.169E-02 0.319E-02 0.793E-02 0.972E-02 0.122E-01 0.170E-01
         4 0.144E-02 0.793E-02 0.122E-01 0.170E-01 0.307E-01 0.495E-01 0.844E-01 0.126E+00


 Contracted 2-electron integrals neglected if value below      1.0D-11
 AO integral compression algorithm  1   Integral accuracy      1.0D-11

     83.362 MB (compressed) written to integral file ( 53.4%)


 NUMBER OF SORTED TWO-ELECTRON INTEGRALS:   13957892.     BUFFER LENGTH:  32768
 NUMBER OF SEGMENTS:   1  SEGMENT LENGTH:   13957892      RECORD LENGTH: 524288

 Memory used in sort:      14.51 MW

 SORT1 READ    19528472. AND WROTE    13522256. INTEGRALS IN     39 RECORDS. CPU TIME:     0.16 SEC, REAL TIME:     0.20 SEC
 SORT2 READ    13522256. AND WROTE    13957892. INTEGRALS IN    318 RECORDS. CPU TIME:     0.18 SEC, REAL TIME:     0.21 SEC

 FILE SIZES:   FILE 1:   113.9 MBYTE,  FILE 4:   163.6 MBYTE,   TOTAL:    277.6 MBYTE

 OPERATOR DM      FOR CENTER  0  COORDINATES:    0.000000    0.000000    0.000000


 **********************************************************************************************************************************
 DATASETS  * FILE   NREC   LENGTH (MB)   RECORD NAMES
              1      19       87.69       500      610      700      900      950      970     1000      129      960     1100   
                                          VAR    BASINP    GEOM    SYMINP    ZMAT    AOBASIS   BASIS     P2S    ABASIS      S 
                                         1400     1410     1200     1210     1080     1600     1650     1300     1700   
                                           T        V       H0       H01     AOSYM     SMH    MOLCAS    ERIS     OPER   

 PROGRAMS   *        TOTAL       INT
 CPU TIMES  *         1.72      1.63
 REAL TIME  *         2.31 SEC
 DISK USED  *       265.20 MB
 **********************************************************************************************************************************


 Program * Restricted Hartree-Fock

 Orbital guess generated from atomic densities. Full valence occupancy:    6   2   6   2

 Initial occupancy:   4   1   3   1

 NELEC=   18   SYM=1   MS2= 0   THRE=1.0D-08   THRD=3.2D-06   THRG=3.2D-06  HFMA2=F  DIIS_START=2   DIIS_MAX=10   DIIS_INCORE=F

 Level shifts:    0.00 (CLOSED)    0.00 (OPEN)    0.30 (GAP_MIN)

 ITER           ETOT              DE          GRAD        DDIFF     DIIS  NEXP   TIME(IT)  TIME(TOT)  DIAG
   1      -79.22399865     -79.22399865     0.00D+00     0.11D+00     0     0       0.03      0.04    start
   2      -79.25084723      -0.02684857     0.78D-02     0.11D-01     1     0       0.02      0.06    diag
   3      -79.25451964      -0.00367242     0.31D-02     0.32D-02     2     0       0.02      0.08    diag
   4      -79.25507618      -0.00055654     0.90D-03     0.12D-02     3     0       0.02      0.10    diag
   5      -79.25508749      -0.00001130     0.11D-03     0.26D-03     4     0       0.02      0.12    diag
   6      -79.25508763      -0.00000014     0.13D-04     0.37D-04     5     0       0.02      0.14    diag
   7      -79.25508763      -0.00000000     0.15D-05     0.36D-05     6     0       0.02      0.16    diag
   8      -79.25508763      -0.00000000     0.25D-06     0.49D-06     7     0       0.02      0.18    fixocc
   9      -79.25508763      -0.00000000     0.30D-07     0.79D-07     0     0       0.02      0.20    diag

 Final occupancy:   4   1   3   1

 !RHF STATE 1.1 Energy                -79.255087629309
  RHF One-electron energy            -189.273274565230
  RHF Two-electron energy              67.684599110781
  RHF Kinetic energy                   79.206111265275
  RHF Nuclear energy                   42.333587825140
  RHF Virial quotient                  -1.000618340722

 !RHF STATE 1.1 Dipole moment          -0.00000001     0.00000000     0.00000000
 Dipole moment /Debye                  -0.00000001     0.00000000     0.00000000

 Orbital energies:

           1.1          2.1          3.1          4.1          5.1          6.1
    -11.208507    -1.017433    -0.596857    -0.512324     0.143245     0.199371

           1.2          2.2          3.2
     -0.596857     0.199371     0.376115

           1.3          2.3          3.3          4.3          5.3
    -11.207913    -0.844478    -0.483835     0.177985     0.268353

           1.4          2.4          3.4
     -0.483835     0.268353     0.457308


 HOMO      1.4    -0.483835 =     -13.1658eV
 LUMO      5.1     0.143245 =       3.8979eV
 LUMO-HOMO         0.627080 =      17.0637eV

 Orbitals saved in record  2100.2


 **********************************************************************************************************************************
 DATASETS  * FILE   NREC   LENGTH (MB)   RECORD NAMES
              1      19       87.69       500      610      700      900      950      970     1000      129      960     1100   
                                          VAR    BASINP    GEOM    SYMINP    ZMAT    AOBASIS   BASIS     P2S    ABASIS      S 
                                         1400     1410     1200     1210     1080     1600     1650     1300     1700   
                                           T        V       H0       H01     AOSYM     SMH    MOLCAS    ERIS     OPER   

              2       4        0.60       700     1000      520     2100   
                                         GEOM     BASIS   MCVARS     RHF  

 PROGRAMS   *        TOTAL    HF-SCF       INT
 CPU TIMES  *         1.93      0.20      1.63
 REAL TIME  *         2.56 SEC
 DISK USED  *       265.20 MB
 **********************************************************************************************************************************


 PROGRAM * PAPT (Closed-shell)     Authors: C. Hampel, H.-J. Werner, 1991, P.J. Knowles, 2021


 CORETYPE=SMALL

 Convergence thresholds:  THRVAR = 1.00D-08  THRDEN = 1.00D-06

 Number of closed-shell orbitals:   9 (   4   1   3   1 )
 Number of external orbitals:     135 (  40  27  41  27 )

 Molecular orbitals read from record     2100.2  Type=RHF/CANONICAL  

 Number of N-1 electron functions:               9
 Number of N-2 electron functions:              45
 Number of singly external CSFs:               337
 Number of doubly external CSFs:            187414
 Total number of CSFs:                      187752

 Length of J-op  integral file:               0.00 MB
 Length of K-op  integral file:               0.44 MB

 Integral transformation finished. Total CPU:   0.06 sec, npass=  1  Memory used:   0.32 MW

 Reference energy:                    -79.25508763

                        CORR.ENERGY   TOTAL ENERGY   ENERGY CHANGE
 MP2:                   -0.40212254   -79.65721017    -0.40212254

 SCS-MP2 correlation energy:           -0.41389522   (PS=  1.200000  PT=  0.333333)
 SCS-MP2 total energy:                -79.66898285
 Iteration:   1     0.2339D+00
 Iteration:   2     0.1868D+01
 Iteration:   3     0.5930D-01
 Iteration:   4     0.1135D+00
 Iteration:   5     0.1705D-01
 Iteration:   6     0.1741D-01
 Iteration:   7     0.9206D-02
 Iteration:   8     0.2639D-02
 Iteration:   9     0.5668D-01
 Iteration:  10     0.6178D-03
 Iteration:  11     0.3445D-03
 Iteration:  12     0.1305D-02
 Iteration:  13     0.2818D-04
 PAPT operator written to  7000.1
 PAPT orbitals and eigenvalues written to  7000.2

 MP3(D):                -0.43211100   -79.68719863    -0.02998846



 RESULTS
 =======

  Reference energy                    -79.255087629309

  Correlated core orbitals:             1.1       1.3
  Orbital energies:                   -11.2085  -11.2079

  MP3 core-core energy                 -0.021279109747
  MP3 core-valence energy              -0.012318019869
  MP3 valence correlation energy       -0.398513868621

  MP3 singlet pair energy              -0.314879060164
  MP3 triplet pair energy              -0.117231938074
  MP3 correlation energy               -0.432110998237

 !MP3 total energy                    -79.687198627546

 Timing summary (sec):

 STEP                 CPU(USER)    SYS     CPU(TOT)    WALL
 Transformation          0.06      0.01      0.07      0.07
 CCSD iterations         2.33      0.03      2.36      0.33

 Program statistics:

 Available memory in ccsd:              3145727672
 Min. memory needed in ccsd:                544376
 Max. memory used in ccsd:                  704909
 Max. memory used in cckext:                642421 ( 1 integral passes)



 **********************************************************************************************************************************
 DATASETS  * FILE   NREC   LENGTH (MB)   RECORD NAMES
              1      21       90.53       500      610      700      900      950      970     1000      129      960     1100   
                                          VAR    BASINP    GEOM    SYMINP    ZMAT    AOBASIS   BASIS     P2S    ABASIS      S 
                                         1400     1410     1200     1210     1080     1600     1650     1300     1700     1380   
                                           T        V       H0       H01     AOSYM     SMH    MOLCAS    ERIS     OPER     JKOP   
                                         7000   
                                        PAPT AO    

              2       5        0.82       700     1000      520     2100     7000   
                                         GEOM     BASIS   MCVARS     RHF     PAPT   

 PROGRAMS   *        TOTAL      PAPT    HF-SCF       INT
 CPU TIMES  *         2.33      0.39      0.20      1.63
 REAL TIME  *         3.01 SEC
 DISK USED  *       265.20 MB
 **********************************************************************************************************************************


 PROGRAM * MP4 (Closed-shell)     Authors: C. Hampel, H.-J. Werner, 1991, M. Deegan, P.J. Knowles, 1992


 CORETYPE=SMALL

 Convergence thresholds:  THRVAR = 1.00D-08  THRDEN = 1.00D-06

 MP4(T)     terms to be evaluated (factor= 0.000)


 Number of closed-shell orbitals:   9 (   4   1   3   1 )
 Number of external orbitals:     135 (  40  27  41  27 )

 Molecular orbitals read from record     7000.2  Type=PAPT/CANONICAL (state 1.1)

 Number of N-1 electron functions:               9
 Number of N-2 electron functions:              45
 Number of singly external CSFs:               337
 Number of doubly external CSFs:            187414
 Total number of CSFs:                      187752

 Length of J-op  integral file:               0.00 MB
 Length of K-op  integral file:               0.44 MB

 Memory could be reduced to 7.25 Mwords without degradation in triples

 Integral transformation finished. Total CPU:   0.23 sec, npass=  1  Memory used:   1.33 MW
 Orbital energies read from record       7000.2  Type=PAPT/CANONICAL (state 1.1)

 Reference energy:                    -79.25508763

                        CORR.ENERGY   TOTAL ENERGY   ENERGY CHANGE
 MP2:                   -0.43787210   -79.69295973    -0.43787210

 SCS-MP2 correlation energy:           -0.45230709   (PS=  1.200000  PT=  0.333333)
 SCS-MP2 total energy:                -79.70739472

 MP3(D):                -0.43810112   -79.69318875    -0.00022902
 MP4(DQ):               -0.43208861   -79.68717624     0.00601250
 MP4(SDQ):              -0.43433287   -79.68942049    -0.00224425

 Norm of t1 vector:      0.03761102      S-energy:    -0.00224425      T1 diagnostic:  0.00626850

 Largest off-diagonal element in interal  block of Fock matrix:  0.83D-01
 Largest off-diagonal element in external block of Fock matrix:  0.25D+00


 Total CPU time for triples:      2.34 sec


 RESULTS
 =======

  Reference energy                    -79.255087629309

  Correlated core orbitals:             1.1       1.3
  Orbital energies:                   -10.6359  -10.6403

  MP4(SDQ) core-core energy            -0.021472196374
  MP4(SDQ) core-valence energy         -0.012264226658
  MP4(SDQ) valence correlation ener    -0.400596442518

  MP4(SDQ) singlet pair energy         -0.316850016301
  MP4(SDQ) triplet pair energy         -0.115238596046
  MP4(SDQ) correlation energy          -0.434332865549

  Triples contribution                 -0.016175336066
  Total correlation energy             -0.450508201615

  MP4(SDQ) total energy               -79.689420494858
 !MP4(SDTQ) total energy              -79.705595830924

 Timing summary (sec):

 STEP                 CPU(USER)    SYS     CPU(TOT)    WALL
 Transformation          0.28      0.04      0.32      0.34
 CCSD iterations         2.79      0.04      2.83      0.39
 Triples                 2.34      0.15      2.49      2.55

 Program statistics:

 Available memory in ccsd:              3145727672
 Min. memory needed in ccsd:                544376
 Max. memory used in ccsd:                  704909
 Max. memory used in cckext:                642421 ( 1 integral passes)



 **********************************************************************************************************************************
 DATASETS  * FILE   NREC   LENGTH (MB)   RECORD NAMES
              1      22      111.91       500      610      700      900      950      970     1000      129      960     1100   
                                          VAR    BASINP    GEOM    SYMINP    ZMAT    AOBASIS   BASIS     P2S    ABASIS      S 
                                         1400     1410     1200     1210     1080     1600     1650     1300     1700     1380   
                                           T        V       H0       H01     AOSYM     SMH    MOLCAS    ERIS     OPER     JKOP   
                                         7000     1380(1)
                                        PAPT AO   JKOP   

              2       5        0.82       700     1000      520     2100     7000   
                                         GEOM     BASIS   MCVARS     RHF     PAPT   

 PROGRAMS   *        TOTAL       MP4      PAPT    HF-SCF       INT
 CPU TIMES  *         5.33      3.00      0.39      0.20      1.63
 REAL TIME  *         6.32 SEC
 DISK USED  *       265.20 MB
 **********************************************************************************************************************************

 Dump information in style XML to xml output                                                                      

 Orbitals will not be exported.

 **********************************************************************************************************************************

 MP4/cc-pVTZ energy=    -79.705595830924

             MP4            PAPT          HF-SCF
    -79.70559583    -79.68719863    -79.25508763
 **********************************************************************************************************************************
 Molpro calculation terminated
