
 Working directory              : /var/folders/2v/xbgp75_9785319ghcgb4zr4r0000gr/T//molpro.TrEFz4nDf4/
 Global scratch directory       : /var/folders/2v/xbgp75_9785319ghcgb4zr4r0000gr/T//molpro.TrEFz4nDf4/
 Wavefunction directory         : /Users/peterk/wfu/
 Main file repository           : /var/folders/2v/xbgp75_9785319ghcgb4zr4r0000gr/T//molpro.TrEFz4nDf4/

 id        : peterk

 Nodes        nprocs
 pjk2022.local    1
 GA implementation: MPI file
 GA implementation (serial work in mppx): MPI file

 Using customized tuning parameters: mindgm=1; mindgv=20; mindgc=4; mindgr=1; noblas=0; minvec=7
 default implementation of scratch files=df  


 Variables initialized (1037), CPU time= 0.00 sec
 
 
 
 geometry={
 9
    C   -0.01176315610686      0.01965847235270      1.44907123696768
    C   0.02897417000745      0.30760188938184     -0.02809299349958
    N   -1.16421746089559      0.02649414288721     -0.78157818723604
    O   0.99400882632339      0.75831487216553     -0.56649944908317
    H   -1.40442741462843     -0.95232999431478     -0.68039484336666
    H   -1.93900803841296      0.53566898470082     -0.37443388798065
    H   -0.75177102971163      0.65775865221104      1.92690831006394
    H   -0.32593951812022     -1.00685915644777      1.63148956854443
    H   0.95840162154485      0.20296313706342      1.89519724559006
 }
 basis=cc-pVDZ
 core,small
 
 
 hf; papt;mp4
 
 
 
 {put,xml;noorbitals,nobasis}
 Commands initialized (841), CPU time= 0.01 sec, 716 directives.
 Default parameters read. Elapsed time= 0.05 sec

 Checking input...
 Passed
1


                                         ***  PROGRAM SYSTEM MOLPRO  ***
                                       Copyright, TTI GmbH Stuttgart, 2015
                                    Version 2023.1 linked Sat Jul 22 07:59:25 2023


 **********************************************************************************************************************************
 LABEL *                                                                                                                                                                 
  64 bit serial version                                                                  DATE: 01-Aug-23          TIME: 22:51:51  
 **********************************************************************************************************************************

 SHA1:             401d111a1dbfa49388eacdf0424f85138b2d30d0
 **********************************************************************************************************************************

 Memory per process:      3146 MW
 Total memory per node:   4194 MW
 Total GA space:          1049 MW

 GA preallocation disabled
 GA check enabled

 Geometry recognized as XYZ


 Variable memory set to 3145.7 MW

 SETTING BASIS          =    CC-PVDZ


 Recomputing integrals since basis changed


 Using spherical harmonics

 Library entry C      S cc-pVDZ              selected for orbital group  1
 Library entry C      P cc-pVDZ              selected for orbital group  1
 Library entry C      D cc-pVDZ              selected for orbital group  1
 Library entry N      S cc-pVDZ              selected for orbital group  2
 Library entry N      P cc-pVDZ              selected for orbital group  2
 Library entry N      D cc-pVDZ              selected for orbital group  2
 Library entry O      S cc-pVDZ              selected for orbital group  3
 Library entry O      P cc-pVDZ              selected for orbital group  3
 Library entry O      D cc-pVDZ              selected for orbital group  3
 Library entry H      S cc-pVDZ              selected for orbital group  4
 Library entry H      P cc-pVDZ              selected for orbital group  4


 PROGRAM * SEWARD (Integral evaluation for generally contracted gaussian basis sets)     Author: Roland Lindh, 1990

 Geometry written to block  1 of record 700


 Point group  C1  



 ATOMIC COORDINATES

 NR  ATOM    CHARGE       X              Y              Z

   1  C       6.00   -0.022229143    0.037149129    2.738347773
   2  C       6.00    0.054753246    0.581283326   -0.053088064
   3  N       7.00   -2.200052151    0.050066674   -1.476968719
   4  O       8.00    1.878404447    1.433007425   -1.070528809
   5  H       1.00   -2.653983176   -1.799642870   -1.285759911
   6  H       1.00   -3.664194146    1.012267675   -0.707577500
   7  H       1.00   -1.420641355    1.242983709    3.641328973
   8  H       1.00   -0.615936422   -1.902688052    3.083068460
   9  H       1.00    1.811116582    0.383544742    3.581403746

 Bond lengths in Bohr (Angstrom)

 1-2  2.845017108  1-7  2.055472888  1-8  2.057738801  1-9  2.047410522  2-3  2.719149615
     ( 1.505518218)     ( 1.087709410)     ( 1.088908479)     ( 1.083442989)     ( 1.438912009)

 2-4  2.255287856  3-5  1.914168117  3-6  1.913506048
     ( 1.193446937)     ( 1.012934145)     ( 1.012583794)

 Bond angles

  1-2-3  116.99962754   1-2-4  122.46262043   2-1-7  109.70881477   2-1-8  110.63884846

  2-1-9  110.32982907   2-3-5  109.45831102   2-3-6  109.00850362   3-2-4  120.53528120

  5-3-6  105.32516510   7-1-8  106.44801794   7-1-9  109.21170946   8-1-9  110.41823028

 NUCLEAR CHARGE:                   32
 NUMBER OF PRIMITIVE AOS:         143
 NUMBER OF SYMMETRY AOS:          139
 NUMBER OF CONTRACTIONS:           81   (   81A   )
 NUMBER OF INNER CORE ORBITALS:     0   (    0A   )
 NUMBER OF OUTER CORE ORBITALS:     4   (    4A   )
 NUMBER OF VALENCE ORBITALS:       21   (   21A   )


 NUCLEAR REPULSION ENERGY  121.23686839

 Eigenvalues of metric

         1 0.380E-02 0.566E-02 0.979E-02 0.176E-01 0.232E-01 0.320E-01 0.353E-01 0.357E-01


 Contracted 2-electron integrals neglected if value below      1.0D-11
 AO integral compression algorithm  1   Integral accuracy      1.0D-11

     26.739 MB (compressed) written to integral file ( 53.7%)


 NUMBER OF SORTED TWO-ELECTRON INTEGRALS:    5516181.     BUFFER LENGTH:  32768
 NUMBER OF SEGMENTS:   1  SEGMENT LENGTH:    5516181      RECORD LENGTH: 524288

 Memory used in sort:       6.07 MW

 SORT1 READ     6266754. AND WROTE     5483097. INTEGRALS IN     16 RECORDS. CPU TIME:     0.04 SEC, REAL TIME:     0.05 SEC
 SORT2 READ     5483097. AND WROTE     5516181. INTEGRALS IN    102 RECORDS. CPU TIME:     0.07 SEC, REAL TIME:     0.09 SEC

 FILE SIZES:   FILE 1:    57.1 MBYTE,  FILE 4:    67.2 MBYTE,   TOTAL:    124.3 MBYTE

 OPERATOR DM      FOR CENTER  0  COORDINATES:    0.000000    0.000000    0.000000


 **********************************************************************************************************************************
 DATASETS  * FILE   NREC   LENGTH (MB)   RECORD NAMES
              1      19       51.33       500      610      700      900      950      970     1000      129      960     1100   
                                          VAR    BASINP    GEOM    SYMINP    ZMAT    AOBASIS   BASIS     P2S    ABASIS      S 
                                         1400     1410     1200     1210     1080     1600     1650     1300     1700   
                                           T        V       H0       H01     AOSYM     SMH    MOLCAS    ERIS     OPER   

 PROGRAMS   *        TOTAL       INT
 CPU TIMES  *         0.64      0.54
 REAL TIME  *         1.18 SEC
 DISK USED  *       119.00 MB
 **********************************************************************************************************************************


 Program * Restricted Hartree-Fock

 Orbital guess generated from atomic densities. Full valence occupancy:   25

 Initial occupancy:  16

 NELEC=   32   SYM=1   MS2= 0   THRE=1.0D-08   THRD=3.2D-06   THRG=3.2D-06  HFMA2=F  DIIS_START=2   DIIS_MAX=10   DIIS_INCORE=F

 Level shifts:    0.00 (CLOSED)    0.00 (OPEN)    0.30 (GAP_MIN)

 ITER           ETOT              DE          GRAD        DDIFF     DIIS  NEXP   TIME(IT)  TIME(TOT)  DIAG
   1     -207.86506055    -207.86506055     0.00D+00     0.13D+00     0     0       0.02      0.05    start
   2     -207.93250340      -0.06744285     0.99D-02     0.23D-01     1     0       0.02      0.07    diag
   3     -207.96767422      -0.03517082     0.69D-02     0.87D-02     2     0       0.02      0.09    diag
   4     -207.96952101      -0.00184679     0.11D-02     0.22D-02     3     0       0.03      0.12    diag
   5     -207.96979579      -0.00027477     0.39D-03     0.83D-03     4     0       0.02      0.14    diag
   6     -207.96982689      -0.00003110     0.12D-03     0.29D-03     5     0       0.02      0.16    diag
   7     -207.96983333      -0.00000644     0.52D-04     0.14D-03     6     0       0.03      0.19    diag
   8     -207.96983419      -0.00000086     0.19D-04     0.54D-04     7     0       0.02      0.21    fixocc
   9     -207.96983426      -0.00000007     0.52D-05     0.18D-04     8     0       0.02      0.23    diag
  10     -207.96983426      -0.00000000     0.74D-06     0.21D-05     9     0       0.03      0.26    diag/orth
  11     -207.96983426      -0.00000000     0.17D-06     0.35D-06     0     0       0.02      0.28    diag

 Final occupancy:  16

 !RHF STATE 1.1 Energy               -207.969834259296
  RHF One-electron energy            -523.182647638307
  RHF Two-electron energy             193.975944989726
  RHF Kinetic energy                  207.836408883434
  RHF Nuclear energy                  121.236868389286
  RHF Virial quotient                  -1.000641973062

 !RHF STATE 1.1 Dipole moment          -1.09135941    -0.60825903     1.14557860
 Dipole moment /Debye                  -2.77395892    -1.54604024     2.91177037

 Orbital energies:

           1.1          2.1          3.1          4.1          5.1          6.1          7.1          8.1          9.1         10.1
    -20.550792   -15.564773   -11.357609   -11.246290    -1.407865    -1.194053    -1.008740    -0.769664    -0.681346    -0.675147

          11.1         12.1         13.1         14.1         15.1         16.1         17.1         18.1
     -0.636360    -0.588902    -0.573357    -0.497040    -0.443560    -0.419857     0.156601     0.161439


 HOMO     16.1    -0.419857 =     -11.4249eV
 LUMO     17.1     0.156601 =       4.2613eV
 LUMO-HOMO         0.576458 =      15.6862eV

 Orbitals saved in record  2100.2


 **********************************************************************************************************************************
 DATASETS  * FILE   NREC   LENGTH (MB)   RECORD NAMES
              1      19       51.33       500      610      700      900      950      970     1000      129      960     1100   
                                          VAR    BASINP    GEOM    SYMINP    ZMAT    AOBASIS   BASIS     P2S    ABASIS      S 
                                         1400     1410     1200     1210     1080     1600     1650     1300     1700   
                                           T        V       H0       H01     AOSYM     SMH    MOLCAS    ERIS     OPER   

              2       4        0.62       700     1000      520     2100   
                                         GEOM     BASIS   MCVARS     RHF  

 PROGRAMS   *        TOTAL    HF-SCF       INT
 CPU TIMES  *         0.92      0.28      0.54
 REAL TIME  *         1.50 SEC
 DISK USED  *       119.00 MB
 **********************************************************************************************************************************


 PROGRAM * PAPT (Closed-shell)     Authors: C. Hampel, H.-J. Werner, 1991, P.J. Knowles, 2021


 CORETYPE=SMALL

 Convergence thresholds:  THRVAR = 1.00D-08  THRDEN = 1.00D-06

 Number of closed-shell orbitals:  16 (  16 )
 Number of external orbitals:      65 (  65 )

 Molecular orbitals read from record     2100.2  Type=RHF/CANONICAL  

 Number of N-1 electron functions:              16
 Number of N-2 electron functions:             136
 Number of singly external CSFs:              1040
 Number of doubly external CSFs:            541320
 Total number of CSFs:                      542361

 Length of J-op  integral file:               0.00 MB
 Length of K-op  integral file:               0.51 MB

 Integral transformation finished. Total CPU:   0.15 sec, npass=  1  Memory used:   1.63 MW

 Reference energy:                   -207.96983426

                        CORR.ENERGY   TOTAL ENERGY   ENERGY CHANGE
 MP2:                   -0.63210714  -208.60194140    -0.63210714

 SCS-MP2 correlation energy:           -0.61942707   (PS=  1.200000  PT=  0.333333)
 SCS-MP2 total energy:               -208.58926133
 Iteration:   1     0.2384D+00
 Iteration:   2     0.2571D+01
 Iteration:   3     0.9673D-01
 Iteration:   4     0.2455D+00
 Iteration:   5     0.5293D-01
 Iteration:   6     0.5142D-01
 Iteration:   7     0.5029D-01
 Iteration:   8     0.2241D-01
 Iteration:   9     0.3507D-01
 Iteration:  10     0.7368D-02
 Iteration:  11     0.1063D+00
 Iteration:  12     0.3838D-02
 Iteration:  13     0.4761D-02
 Iteration:  14     0.3347D-02
 Iteration:  15     0.1664D-02
 Iteration:  16     0.2468D-02
 Iteration:  17     0.5807D-03
 Iteration:  18     0.8103D-03
 Iteration:  19     0.3100D-03
 Iteration:  20     0.2124D-03
 Iteration:  21     0.1277D-03
 Iteration:  22     0.5926D-04
 PAPT operator written to  7000.1
 PAPT orbitals and eigenvalues written to  7000.2

 MP3(D):                -0.65576902  -208.62560328    -0.02366188



 RESULTS
 =======

  Reference energy                   -207.969834259295

  Correlated core orbitals:             1.1       2.1       3.1       4.1
  Orbital energies:                   -20.5508  -15.5648  -11.3576  -11.2463

  MP3 core-core energy                 -0.002315767568
  MP3 core-valence energy              -0.007518667835
  MP3 valence correlation energy       -0.645934584036

  MP3 singlet pair energy              -0.433133113318
  MP3 triplet pair energy              -0.222635906122
  MP3 correlation energy               -0.655769019440

 !MP3 total energy                   -208.625603278735

 Timing summary (sec):

 STEP                 CPU(USER)    SYS     CPU(TOT)    WALL
 Transformation          0.18      0.03      0.21      0.22
 CCSD iterations         4.16      0.08      4.24      3.27

 Program statistics:

 Available memory in ccsd:              3145726960
 Min. memory needed in ccsd:               1506696
 Max. memory used in ccsd:                 1977360
 Max. memory used in cckext:               1908392 ( 1 integral passes)



 **********************************************************************************************************************************
 DATASETS  * FILE   NREC   LENGTH (MB)   RECORD NAMES
              1      21       61.71       500      610      700      900      950      970     1000      129      960     1100   
                                          VAR    BASINP    GEOM    SYMINP    ZMAT    AOBASIS   BASIS     P2S    ABASIS      S 
                                         1400     1410     1200     1210     1080     1600     1650     1300     1700     1380   
                                           T        V       H0       H01     AOSYM     SMH    MOLCAS    ERIS     OPER     JKOP   
                                         7000   
                                        PAPT AO    

              2       5        0.87       700     1000      520     2100     7000   
                                         GEOM     BASIS   MCVARS     RHF     PAPT   

 PROGRAMS   *        TOTAL      PAPT    HF-SCF       INT
 CPU TIMES  *         4.26      3.34      0.28      0.54
 REAL TIME  *         5.02 SEC
 DISK USED  *       119.00 MB
 **********************************************************************************************************************************


 PROGRAM * MP4 (Closed-shell)     Authors: C. Hampel, H.-J. Werner, 1991, M. Deegan, P.J. Knowles, 1992


 CORETYPE=SMALL

 Convergence thresholds:  THRVAR = 1.00D-08  THRDEN = 1.00D-06

 MP4(T)     terms to be evaluated (factor= 0.000)


 Number of closed-shell orbitals:  16 (  16 )
 Number of external orbitals:      65 (  65 )

 Molecular orbitals read from record     7000.2  Type=PAPT/CANONICAL (state 1.1)

 Number of N-1 electron functions:              16
 Number of N-2 electron functions:             136
 Number of singly external CSFs:              1040
 Number of doubly external CSFs:            541320
 Total number of CSFs:                      542361

 Length of J-op  integral file:               0.00 MB
 Length of K-op  integral file:               0.51 MB

 Memory could be reduced to 6.58 Mwords without degradation in triples

 Integral transformation finished. Total CPU:   0.35 sec, npass=  1  Memory used:   6.21 MW
 Orbital energies read from record       7000.2  Type=PAPT/CANONICAL (state 1.1)

 Reference energy:                   -207.96983426

                        CORR.ENERGY   TOTAL ENERGY   ENERGY CHANGE
 MP2:                   -0.66213529  -208.63196955    -0.66213529

 SCS-MP2 correlation energy:           -0.65249083   (PS=  1.200000  PT=  0.333333)
 SCS-MP2 total energy:               -208.62232509

 MP3(D):                -0.66246421  -208.63229847    -0.00032892
 MP4(DQ):               -0.65911022  -208.62894448     0.00335399
 MP4(SDQ):              -0.66493081  -208.63476507    -0.00582059

 Norm of t1 vector:      0.06840359      S-energy:    -0.00582059      T1 diagnostic:  0.00855045

 Largest off-diagonal element in interal  block of Fock matrix:  0.14D+00
 Largest off-diagonal element in external block of Fock matrix:  0.19D+00


 Total CPU time for triples:      4.81 sec


 RESULTS
 =======

  Reference energy                   -207.969834259295

  Correlated core orbitals:             1.1       2.1       3.1       4.1
  Orbital energies:                   -21.5254  -16.0040  -11.4864  -11.3346

  MP4(SDQ) core-core energy            -0.002317769480
  MP4(SDQ) core-valence energy         -0.007447506283
  MP4(SDQ) valence correlation ener    -0.655165531181

  MP4(SDQ) singlet pair energy         -0.435382795203
  MP4(SDQ) triplet pair energy         -0.223727420916
  MP4(SDQ) correlation energy          -0.664930806944

  Triples contribution                 -0.022276050316
  Total correlation energy             -0.687206857260

  MP4(SDQ) total energy              -208.634765066239
 !MP4(SDTQ) total energy             -208.657041116555

 Timing summary (sec):

 STEP                 CPU(USER)    SYS     CPU(TOT)    WALL
 Transformation          0.43      0.06      0.49      0.51
 CCSD iterations         5.86      0.03      5.89      1.57
 Triples                 4.81      0.26      5.07      5.17

 Program statistics:

 Available memory in ccsd:              3145726960
 Min. memory needed in ccsd:               1506696
 Max. memory used in ccsd:                 1977360
 Max. memory used in cckext:               1908392 ( 1 integral passes)



 **********************************************************************************************************************************
 DATASETS  * FILE   NREC   LENGTH (MB)   RECORD NAMES
              1      22       78.73       500      610      700      900      950      970     1000      129      960     1100   
                                          VAR    BASINP    GEOM    SYMINP    ZMAT    AOBASIS   BASIS     P2S    ABASIS      S 
                                         1400     1410     1200     1210     1080     1600     1650     1300     1700     1380   
                                           T        V       H0       H01     AOSYM     SMH    MOLCAS    ERIS     OPER     JKOP   
                                         7000     1380(1)
                                        PAPT AO   JKOP   

              2       5        0.87       700     1000      520     2100     7000   
                                         GEOM     BASIS   MCVARS     RHF     PAPT   

 PROGRAMS   *        TOTAL       MP4      PAPT    HF-SCF       INT
 CPU TIMES  *        11.02      6.76      3.34      0.28      0.54
 REAL TIME  *        12.31 SEC
 DISK USED  *       128.19 MB
 **********************************************************************************************************************************

 Dump information in style XML to xml output                                                                      

 Orbitals will not be exported.

 **********************************************************************************************************************************

 MP4/cc-pVDZ energy=   -208.657041116555

             MP4            PAPT          HF-SCF
   -208.65704112   -208.62560328   -207.96983426
 **********************************************************************************************************************************
 Molpro calculation terminated
