
 Working directory              : /var/folders/2v/xbgp75_9785319ghcgb4zr4r0000gr/T//molpro.Kqq2wbAVx7/
 Global scratch directory       : /var/folders/2v/xbgp75_9785319ghcgb4zr4r0000gr/T//molpro.Kqq2wbAVx7/
 Wavefunction directory         : /Users/peterk/wfu/
 Main file repository           : /var/folders/2v/xbgp75_9785319ghcgb4zr4r0000gr/T//molpro.Kqq2wbAVx7/

 id        : peterk

 Nodes        nprocs
 pjk2022.local    1
 GA implementation: MPI file
 GA implementation (serial work in mppx): MPI file

 Using customized tuning parameters: mindgm=1; mindgv=20; mindgc=4; mindgr=1; noblas=0; minvec=7
 default implementation of scratch files=df  


 Variables initialized (1037), CPU time= 0.00 sec
 
 
 
 geometry={
 5
    N   -0.11115880832978     -0.02551613494687     -0.01730510413245
    O   -0.58895878482719      0.46555591931502      1.24339838521922
    H   0.90087984737186     -0.04906254294276      0.02793548072260
    H   -0.33038589374312      0.73021745058808     -0.65400731806521
    H   0.15696863952822      0.47750630798653      1.84464755625584
 }
 basis=cc-pVTZ
 core,small
 
 
 hf; papt;mp2
 
 
 
 {put,xml;noorbitals,nobasis}
 Commands initialized (841), CPU time= 0.00 sec, 716 directives.
 Default parameters read. Elapsed time= 0.05 sec

 Checking input...
 Passed
1


                                         ***  PROGRAM SYSTEM MOLPRO  ***
                                       Copyright, TTI GmbH Stuttgart, 2015
                                    Version 2023.1 linked Sat Jul 22 07:59:25 2023


 **********************************************************************************************************************************
 LABEL *                                                                                                                                                                 
  64 bit serial version                                                                  DATE: 01-Aug-23          TIME: 21:57:14  
 **********************************************************************************************************************************

 SHA1:             401d111a1dbfa49388eacdf0424f85138b2d30d0
 **********************************************************************************************************************************

 Memory per process:      3146 MW
 Total memory per node:   4194 MW
 Total GA space:          1049 MW

 GA preallocation disabled
 GA check enabled

 Geometry recognized as XYZ


 Variable memory set to 3145.7 MW

 SETTING BASIS          =    CC-PVTZ


 Recomputing integrals since basis changed


 Using spherical harmonics

 Library entry N      S cc-pVTZ              selected for orbital group  1
 Library entry N      P cc-pVTZ              selected for orbital group  1
 Library entry N      D cc-pVTZ              selected for orbital group  1
 Library entry N      F cc-pVTZ              selected for orbital group  1
 Library entry O      S cc-pVTZ              selected for orbital group  2
 Library entry O      P cc-pVTZ              selected for orbital group  2
 Library entry O      D cc-pVTZ              selected for orbital group  2
 Library entry O      F cc-pVTZ              selected for orbital group  2
 Library entry H      S cc-pVTZ              selected for orbital group  3
 Library entry H      P cc-pVTZ              selected for orbital group  3
 Library entry H      D cc-pVTZ              selected for orbital group  3


 PROGRAM * SEWARD (Integral evaluation for generally contracted gaussian basis sets)     Author: Roland Lindh, 1990

 Geometry written to block  1 of record 700


 Point group  C1  



 ATOMIC COORDINATES

 NR  ATOM    CHARGE       X              Y              Z

   1  N       7.00   -0.210059704   -0.048218507   -0.032701907
   2  O       8.00   -1.112970802    0.879773183    2.349682412
   3  H       1.00    1.702416183   -0.092714769    0.052790408
   4  H       1.00   -0.624338855    1.379910993   -1.235894715
   5  H       1.00    0.296627739    0.902356145    3.485878678

 Bond lengths in Bohr (Angstrom)

 1-2  2.711488903  1-3  1.914902836  1-4  1.912813115  2-5  1.810640768
     ( 1.434858135)     ( 1.013322942)     ( 1.012217109)     ( 0.958149832)

 Bond angles

  1-2-5  107.24010633   2-1-3  107.53559750   2-1-4  103.00446012   3-1-4  105.17324127

 NUCLEAR CHARGE:                   18
 NUMBER OF PRIMITIVE AOS:         145
 NUMBER OF SYMMETRY AOS:          132
 NUMBER OF CONTRACTIONS:          102   (  102A   )
 NUMBER OF INNER CORE ORBITALS:     0   (    0A   )
 NUMBER OF OUTER CORE ORBITALS:     2   (    2A   )
 NUMBER OF VALENCE ORBITALS:       11   (   11A   )


 NUCLEAR REPULSION ENERGY   39.40147218

 Eigenvalues of metric

         1 0.140E-02 0.271E-02 0.342E-02 0.416E-02 0.575E-02 0.825E-02 0.865E-02 0.108E-01


 Contracted 2-electron integrals neglected if value below      1.0D-11
 AO integral compression algorithm  1   Integral accuracy      1.0D-11

     69.206 MB (compressed) written to integral file ( 53.2%)


 NUMBER OF SORTED TWO-ELECTRON INTEGRALS:   13799631.     BUFFER LENGTH:  32768
 NUMBER OF SEGMENTS:   1  SEGMENT LENGTH:   13799631      RECORD LENGTH: 524288

 Memory used in sort:      14.36 MW

 SORT1 READ    16309490. AND WROTE    13587710. INTEGRALS IN     39 RECORDS. CPU TIME:     0.08 SEC, REAL TIME:     0.13 SEC
 SORT2 READ    13587710. AND WROTE    13799631. INTEGRALS IN    264 RECORDS. CPU TIME:     0.12 SEC, REAL TIME:     0.15 SEC

 FILE SIZES:   FILE 1:    99.7 MBYTE,  FILE 4:   163.6 MBYTE,   TOTAL:    263.3 MBYTE

 OPERATOR DM      FOR CENTER  0  COORDINATES:    0.000000    0.000000    0.000000


 **********************************************************************************************************************************
 DATASETS  * FILE   NREC   LENGTH (MB)   RECORD NAMES
              1      19       85.97       500      610      700      900      950      970     1000      129      960     1100   
                                          VAR    BASINP    GEOM    SYMINP    ZMAT    AOBASIS   BASIS     P2S    ABASIS      S 
                                         1400     1410     1200     1210     1080     1600     1650     1300     1700   
                                           T        V       H0       H01     AOSYM     SMH    MOLCAS    ERIS     OPER   

 PROGRAMS   *        TOTAL       INT
 CPU TIMES  *         0.78      0.69
 REAL TIME  *         1.38 SEC
 DISK USED  *       251.50 MB
 **********************************************************************************************************************************


 Program * Restricted Hartree-Fock

 Orbital guess generated from atomic densities. Full valence occupancy:   13

 Initial occupancy:   9

 NELEC=   18   SYM=1   MS2= 0   THRE=1.0D-08   THRD=3.2D-06   THRG=3.2D-06  HFMA2=F  DIIS_START=2   DIIS_MAX=10   DIIS_INCORE=F

 Level shifts:    0.00 (CLOSED)    0.00 (OPEN)    0.30 (GAP_MIN)

 ITER           ETOT              DE          GRAD        DDIFF     DIIS  NEXP   TIME(IT)  TIME(TOT)  DIAG
   1     -130.99522439    -130.99522439     0.00D+00     0.79D-01     0     0       0.05      0.09    start
   2     -131.02580246      -0.03057807     0.70D-02     0.87D-02     1     0       0.06      0.15    diag
   3     -131.03032165      -0.00451920     0.30D-02     0.26D-02     2     0       0.05      0.20    diag
   4     -131.03081083      -0.00048918     0.85D-03     0.79D-03     3     0       0.05      0.25    diag
   5     -131.03085302      -0.00004219     0.19D-03     0.23D-03     4     0       0.06      0.31    diag
   6     -131.03085634      -0.00000332     0.44D-04     0.62D-04     5     0       0.05      0.36    diag
   7     -131.03085687      -0.00000053     0.18D-04     0.25D-04     6     0       0.05      0.41    diag
   8     -131.03085696      -0.00000009     0.55D-05     0.12D-04     7     0       0.05      0.46    fixocc
   9     -131.03085697      -0.00000001     0.16D-05     0.40D-05     8     0       0.06      0.52    diag
  10     -131.03085697      -0.00000000     0.50D-06     0.13D-05     9     0       0.05      0.57    diag/orth
  11     -131.03085697      -0.00000000     0.14D-06     0.19D-06     0     0       0.05      0.62    diag

 Final occupancy:   9

 !RHF STATE 1.1 Energy               -131.030856967960
  RHF One-electron energy            -257.773462971953
  RHF Two-electron energy              87.341133827305
  RHF Kinetic energy                  130.889010944731
  RHF Nuclear energy                   39.401472176688
  RHF Virial quotient                  -1.001083712240

 !RHF STATE 1.1 Dipole moment           1.02292297     0.40959388    -0.05472575
 Dipole moment /Debye                   2.60001085     1.04108379    -0.13909899

 Orbital energies:

           1.1          2.1          3.1          4.1          5.1          6.1          7.1          8.1          9.1         10.1
    -20.580194   -15.603132    -1.394080    -1.081140    -0.729199    -0.653008    -0.562852    -0.539077    -0.402918     0.130168

          11.1
      0.168355


 HOMO      9.1    -0.402918 =     -10.9640eV
 LUMO     10.1     0.130168 =       3.5420eV
 LUMO-HOMO         0.533086 =      14.5060eV

 Orbitals saved in record  2100.2


 **********************************************************************************************************************************
 DATASETS  * FILE   NREC   LENGTH (MB)   RECORD NAMES
              1      19       85.97       500      610      700      900      950      970     1000      129      960     1100   
                                          VAR    BASINP    GEOM    SYMINP    ZMAT    AOBASIS   BASIS     P2S    ABASIS      S 
                                         1400     1410     1200     1210     1080     1600     1650     1300     1700   
                                           T        V       H0       H01     AOSYM     SMH    MOLCAS    ERIS     OPER   

              2       4        0.62       700     1000      520     2100   
                                         GEOM     BASIS   MCVARS     RHF  

 PROGRAMS   *        TOTAL    HF-SCF       INT
 CPU TIMES  *         1.41      0.63      0.69
 REAL TIME  *         2.09 SEC
 DISK USED  *       251.50 MB
 **********************************************************************************************************************************


 PROGRAM * PAPT (Closed-shell)     Authors: C. Hampel, H.-J. Werner, 1991, P.J. Knowles, 2021


 CORETYPE=SMALL

 Convergence thresholds:  THRVAR = 1.00D-08  THRDEN = 1.00D-06

 Number of closed-shell orbitals:   9 (   9 )
 Number of external orbitals:      93 (  93 )

 Molecular orbitals read from record     2100.2  Type=RHF/CANONICAL  

 Number of N-1 electron functions:               9
 Number of N-2 electron functions:              45
 Number of singly external CSFs:               837
 Number of doubly external CSFs:            350703
 Total number of CSFs:                      351541

 Length of J-op  integral file:               0.00 MB
 Length of K-op  integral file:               0.78 MB

 Integral transformation finished. Total CPU:   0.10 sec, npass=  1  Memory used:   1.02 MW

 Reference energy:                   -131.03085697

                        CORR.ENERGY   TOTAL ENERGY   ENERGY CHANGE
 MP2:                   -0.49317607  -131.52403304    -0.49317607

 SCS-MP2 correlation energy:           -0.48951723   (PS=  1.200000  PT=  0.333333)
 SCS-MP2 total energy:               -131.52037419
 Iteration:   1     0.2404D+00
 Iteration:   2     0.4864D+01
 Iteration:   3     0.8642D-01
 Iteration:   4     0.4199D+00
 Iteration:   5     0.3362D-01
 Iteration:   6     0.3601D-01
 Iteration:   7     0.3821D-01
 Iteration:   8     0.1547D-01
 Iteration:   9     0.7209D-01
 Iteration:  10     0.5183D-02
 Iteration:  11     0.1394D-01
 Iteration:  12     0.1531D-02
 Iteration:  13     0.1250D-02
 Iteration:  14     0.1428D-02
 Iteration:  15     0.3715D-03
 Iteration:  16     0.6263D-01
 Iteration:  17     0.1686D-03
 Iteration:  18     0.2729D-03
 Iteration:  19     0.9550D-04
 PAPT operator written to  7000.1
 PAPT orbitals and eigenvalues written to  7000.2

 MP3(D):                -0.50325122  -131.53410819    -0.01007515



 RESULTS
 =======

  Reference energy                   -131.030856967960

  Correlated core orbitals:             1.1       2.1
  Orbital energies:                   -20.5802  -15.6031

  MP3 core-core energy                 -0.014174141749
  MP3 core-valence energy              -0.013938401287
  MP3 valence correlation energy       -0.475138679336

  MP3 singlet pair energy              -0.340213439422
  MP3 triplet pair energy              -0.163037782951
  MP3 correlation energy               -0.503251222372

 !MP3 total energy                   -131.534108190332

 Timing summary (sec):

 STEP                 CPU(USER)    SYS     CPU(TOT)    WALL
 Transformation          0.12      0.02      0.14      0.12
 CCSD iterations         2.48      0.05      2.53      1.02

 Program statistics:

 Available memory in ccsd:              3145727667
 Min. memory needed in ccsd:               1035643
 Max. memory used in ccsd:                 1332049
 Max. memory used in cckext:               1036535 ( 1 integral passes)



 **********************************************************************************************************************************
 DATASETS  * FILE   NREC   LENGTH (MB)   RECORD NAMES
              1      21       91.55       500      610      700      900      950      970     1000      129      960     1100   
                                          VAR    BASINP    GEOM    SYMINP    ZMAT    AOBASIS   BASIS     P2S    ABASIS      S 
                                         1400     1410     1200     1210     1080     1600     1650     1300     1700     1380   
                                           T        V       H0       H01     AOSYM     SMH    MOLCAS    ERIS     OPER     JKOP   
                                         7000   
                                        PAPT AO    

              2       5        0.95       700     1000      520     2100     7000   
                                         GEOM     BASIS   MCVARS     RHF     PAPT   

 PROGRAMS   *        TOTAL      PAPT    HF-SCF       INT
 CPU TIMES  *         2.51      1.09      0.63      0.69
 REAL TIME  *         3.26 SEC
 DISK USED  *       251.50 MB
 **********************************************************************************************************************************


 PROGRAM * MP2 (Closed-shell)     Authors: C. Hampel, H.-J. Werner, 1991, M. Deegan, P.J. Knowles, 1992


 CORETYPE=SMALL

 Convergence thresholds:  THRVAR = 1.00D-08  THRDEN = 1.00D-06

 Number of closed-shell orbitals:   9 (   9 )
 Number of external orbitals:      93 (  93 )

 Molecular orbitals read from record     7000.2  Type=PAPT/CANONICAL (state 1.1)

 Number of N-1 electron functions:               9
 Number of N-2 electron functions:              45
 Number of singly external CSFs:               837
 Number of doubly external CSFs:            350703
 Total number of CSFs:                      351541

 Length of J-op  integral file:               0.00 MB
 Length of K-op  integral file:               0.78 MB

 Integral transformation finished. Total CPU:   0.09 sec, npass=  1  Memory used:   1.02 MW
 Orbital energies read from record       7000.2  Type=PAPT/CANONICAL (state 1.1)

 Memory needed for MP2:                      0.05 MW

 SCS-MP2 correlation energy:           -0.505212727835   (PS=  1.200000  PT=  0.333333)
 SCS-MP2 total energy:               -131.536069695794


  Reference energy                   -131.030856967960

  Correlated core orbitals:             1.1       2.1
  Orbital energies:                   -20.0622  -14.9846

  MP2 core-core energy                 -0.014240195855
  MP2 core-valence energy              -0.013878062609
  MP2 valence correlation energy       -0.478833704690

  MP2 singlet pair energy              -0.328458376317
  MP2 triplet pair energy              -0.178493586837
  MP2 correlation energy               -0.506951963154

 !MP2 total energy                   -131.537808931114


 **********************************************************************************************************************************
 DATASETS  * FILE   NREC   LENGTH (MB)   RECORD NAMES
              1      21       91.55       500      610      700      900      950      970     1000      129      960     1100   
                                          VAR    BASINP    GEOM    SYMINP    ZMAT    AOBASIS   BASIS     P2S    ABASIS      S 
                                         1400     1410     1200     1210     1080     1600     1650     1300     1700     1380   
                                           T        V       H0       H01     AOSYM     SMH    MOLCAS    ERIS     OPER     JKOP   
                                         7000   
                                        PAPT AO    

              2       5        0.95       700     1000      520     2100     7000   
                                         GEOM     BASIS   MCVARS     RHF     PAPT   

 PROGRAMS   *        TOTAL       MP2      PAPT    HF-SCF       INT
 CPU TIMES  *         2.69      0.18      1.09      0.63      0.69
 REAL TIME  *         3.46 SEC
 DISK USED  *       251.50 MB
 **********************************************************************************************************************************

 Dump information in style XML to xml output                                                                      

 Orbitals will not be exported.

 **********************************************************************************************************************************

 MP2/cc-pVTZ energy=   -131.537808931114

             MP2            PAPT          HF-SCF
   -131.53780893   -131.53410819   -131.03085697
 **********************************************************************************************************************************
 Molpro calculation terminated
