
 Working directory              : /var/folders/2v/xbgp75_9785319ghcgb4zr4r0000gr/T//molpro.aZiZbYO0bf/
 Global scratch directory       : /var/folders/2v/xbgp75_9785319ghcgb4zr4r0000gr/T//molpro.aZiZbYO0bf/
 Wavefunction directory         : /Users/peterk/wfu/
 Main file repository           : /var/folders/2v/xbgp75_9785319ghcgb4zr4r0000gr/T//molpro.aZiZbYO0bf/

 id        : peterk

 Nodes        nprocs
 pjk2022.local    1
 GA implementation: MPI file
 GA implementation (serial work in mppx): MPI file

 Using customized tuning parameters: mindgm=1; mindgv=20; mindgc=4; mindgr=1; noblas=0; minvec=7
 default implementation of scratch files=df  


 Variables initialized (1037), CPU time= 0.00 sec
 
 
 
 geometry={
 14
    S   -1.07651408694701      1.55909331300747     -0.16473423862825
    N   1.55759138460655      1.52879102637246     -0.00166525805909
    N   0.55024178271671     -0.51665327683518      0.07584104782563
    C   0.39480761738850      0.81542711689426     -0.01226111393943
    H   2.35939050602205      1.14610345291709      0.46702007763183
    H   1.43099378110250      2.51919923470171      0.08325351883907
    H   1.47820874248856     -0.89064132072958     -0.01023745870744
    C   -0.54350315415845     -1.45978337134053     -0.02538256632559
    C   -0.00842595671007     -2.87304066848227      0.00782815790672
    H   -1.23656353070287     -1.28244276737015      0.79375996936071
    H   -1.09794538233749     -1.27089204719750     -0.94300408538889
    H   0.49864844559912     -3.08551516241133      0.94698661332708
    H   -0.82163456804155     -3.58324981676604     -0.10446311715269
    H   0.69447441897345     -3.04922571276042     -0.80394154668966
 }
 basis=cc-pVDZ
 core,small
 
 
 hf; papt;mp2
 
 
 
 {put,xml;noorbitals,nobasis}
 Commands initialized (841), CPU time= 0.00 sec, 716 directives.
 Default parameters read. Elapsed time= 0.06 sec

 Checking input...
 Passed
1


                                         ***  PROGRAM SYSTEM MOLPRO  ***
                                       Copyright, TTI GmbH Stuttgart, 2015
                                    Version 2023.1 linked Sat Jul 22 07:59:25 2023


 **********************************************************************************************************************************
 LABEL *                                                                                                                                                                 
  64 bit serial version                                                                  DATE: 01-Aug-23          TIME: 21:47:51  
 **********************************************************************************************************************************

 SHA1:             401d111a1dbfa49388eacdf0424f85138b2d30d0
 **********************************************************************************************************************************

 Memory per process:      3146 MW
 Total memory per node:   4194 MW
 Total GA space:          1049 MW

 GA preallocation disabled
 GA check enabled

 Geometry recognized as XYZ


 Variable memory set to 3145.7 MW

 SETTING BASIS          =    CC-PVDZ


 Recomputing integrals since basis changed


 Using spherical harmonics

 Library entry S      S cc-pVDZ              selected for orbital group  1
 Library entry S      P cc-pVDZ              selected for orbital group  1
 Library entry S      D cc-pVDZ              selected for orbital group  1
 Library entry N      S cc-pVDZ              selected for orbital group  2
 Library entry N      P cc-pVDZ              selected for orbital group  2
 Library entry N      D cc-pVDZ              selected for orbital group  2
 Library entry C      S cc-pVDZ              selected for orbital group  3
 Library entry C      P cc-pVDZ              selected for orbital group  3
 Library entry C      D cc-pVDZ              selected for orbital group  3
 Library entry H      S cc-pVDZ              selected for orbital group  4
 Library entry H      P cc-pVDZ              selected for orbital group  4


 PROGRAM * SEWARD (Integral evaluation for generally contracted gaussian basis sets)     Author: Roland Lindh, 1990

 Geometry written to block  1 of record 700


 Point group  C1  



 ATOMIC COORDINATES

 NR  ATOM    CHARGE       X              Y              Z

   1  S      16.00   -2.034316794    2.946259364   -0.311302594
   2  N       7.00    2.943421131    2.888996342   -0.003146882
   3  N       7.00    1.039806272   -0.976333195    0.143318809
   4  C       6.00    0.746078269    1.540933926   -0.023170147
   5  H       1.00    4.458601877    2.165821637    0.882540041
   6  H       1.00    2.704186332    4.760596607    0.157326350
   7  H       1.00    2.793409678   -1.683068171   -0.019345993
   8  C       6.00   -1.027072109   -2.758590773   -0.047966099
   9  C       6.00   -0.015922751   -5.429260008    0.014793075
  10  H       1.00   -2.336766409   -2.423465601    1.499988951
  11  H       1.00   -2.074816072   -2.401637903   -1.782019456
  12  H       1.00    0.942308995   -5.830778610    1.789545343
  13  H       1.00   -1.552664308   -6.771360790   -0.197406682
  14  H       1.00    1.312366452   -5.762201489   -1.519229343

 Bond lengths in Bohr (Angstrom)

 1-4  3.128666904  2-4  2.577981548  2-5  1.898208543  2-6  1.893640013  3-4  2.539808746
     ( 1.655619226)     ( 1.364209085)     ( 1.004488703)     ( 1.002071141)     ( 1.344008908)

  3- 7  1.897645666   3- 8  2.735876136   8- 9  2.856367606   8-10  2.055181957   8-11  2.057212631
       ( 1.004190841)       ( 1.447763303)       ( 1.511524643)       ( 1.087555456)       ( 1.088630042)

  9-12  2.056494804   9-13  2.051301504   9-14  2.056313939
       ( 1.088250185)       ( 1.085502008)       ( 1.088154475)

 Bond angles

  1-4-2  121.55413615   1-4-3  123.64209745   2-4-3  114.78344315   3-8-9  109.88393565

  3- 8-10  108.81709668   3- 8-11  109.30915153   4- 2- 5  118.99709286   4- 2- 6  114.19249504

  4-3-7  118.05857485   4-3-8  123.62152277   5-2-6  115.96654728   7-3-8  116.71292067

  8- 9-12  111.49742149   8- 9-13  110.13664928   8- 9-14  111.32526745   9- 8-10  111.19258833

  9- 8-11  111.16438557  10- 8-11  106.38112730  12- 9-13  108.09560510  12- 9-14  108.13179761

 13- 9-14  107.50660725

 NUCLEAR CHARGE:                   56
 NUMBER OF PRIMITIVE AOS:         233
 NUMBER OF SYMMETRY AOS:          227
 NUMBER OF CONTRACTIONS:          128   (  128A   )
 NUMBER OF INNER CORE ORBITALS:     1   (    1A   )
 NUMBER OF OUTER CORE ORBITALS:     9   (    9A   )
 NUMBER OF VALENCE ORBITALS:       32   (   32A   )


 NUCLEAR REPULSION ENERGY  295.57606316


 Eigenvalues of metric

         1 0.329E-02 0.367E-02 0.458E-02 0.543E-02 0.850E-02 0.184E-01 0.211E-01 0.240E-01


 Contracted 2-electron integrals neglected if value below      1.0D-11
 AO integral compression algorithm  1   Integral accuracy      1.0D-11

     129.237 MB (compressed) written to integral file ( 45.4%)


 NUMBER OF SORTED TWO-ELECTRON INTEGRALS:   34084896.     BUFFER LENGTH:  32768
 NUMBER OF SEGMENTS:   3  SEGMENT LENGTH:   15998004      RECORD LENGTH: 524288

 Memory used in sort:      16.56 MW

 SORT1 READ    35633417. AND WROTE    30823561. INTEGRALS IN     89 RECORDS. CPU TIME:     0.27 SEC, REAL TIME:     0.32 SEC
 SORT2 READ    30823561. AND WROTE    34084896. INTEGRALS IN    493 RECORDS. CPU TIME:     0.29 SEC, REAL TIME:     0.34 SEC

 FILE SIZES:   FILE 1:   160.1 MBYTE,  FILE 4:   373.4 MBYTE,   TOTAL:    533.4 MBYTE

 OPERATOR DM      FOR CENTER  0  COORDINATES:    0.000000    0.000000    0.000000


 **********************************************************************************************************************************
 DATASETS  * FILE   NREC   LENGTH (MB)   RECORD NAMES
              1      19      139.47       500      610      700      900      950      970     1000      129      960     1100   
                                          VAR    BASINP    GEOM    SYMINP    ZMAT    AOBASIS   BASIS     P2S    ABASIS      S 
                                         1400     1410     1200     1210     1080     1600     1650     1300     1700   
                                           T        V       H0       H01     AOSYM     SMH    MOLCAS    ERIS     OPER   

 PROGRAMS   *        TOTAL       INT
 CPU TIMES  *         2.09      2.00
 REAL TIME  *         2.76 SEC
 DISK USED  *       509.29 MB
 **********************************************************************************************************************************


 Program * Restricted Hartree-Fock

 Orbital guess generated from atomic densities. Full valence occupancy:   42

 Initial occupancy:  28

 NELEC=   56   SYM=1   MS2= 0   THRE=1.0D-08   THRD=3.2D-06   THRG=3.2D-06  HFMA2=F  DIIS_START=2   DIIS_MAX=10   DIIS_INCORE=F

 Level shifts:    0.00 (CLOSED)    0.00 (OPEN)    0.30 (GAP_MIN)

 ITER           ETOT              DE          GRAD        DDIFF     DIIS  NEXP   TIME(IT)  TIME(TOT)  DIAG
   1     -624.62223915    -624.62223915     0.00D+00     0.11D+00     0     0       0.16      0.30    start
   2     -624.70291924      -0.08068009     0.50D-02     0.14D-01     1     0       0.15      0.45    diag
   3     -624.72043903      -0.01751979     0.24D-02     0.49D-02     2     0       0.17      0.62    diag
   4     -624.72302129      -0.00258226     0.82D-03     0.17D-02     3     0       0.15      0.77    diag
   5     -624.72322364      -0.00020235     0.18D-03     0.49D-03     4     0       0.15      0.92    diag
   6     -624.72325124      -0.00002759     0.56D-04     0.20D-03     5     0       0.15      1.07    diag
   7     -624.72325328      -0.00000204     0.16D-04     0.54D-04     6     0       0.16      1.23    diag
   8     -624.72325349      -0.00000021     0.56D-05     0.15D-04     7     0       0.15      1.38    fixocc
   9     -624.72325352      -0.00000004     0.19D-05     0.67D-05     8     0       0.15      1.53    diag
  10     -624.72325353      -0.00000001     0.73D-06     0.29D-05     9     0       0.16      1.69    diag/orth
  11     -624.72325353      -0.00000000     0.29D-06     0.76D-06     0     0       0.15      1.84    diag

 Final occupancy:  28

 !RHF STATE 1.1 Energy               -624.723253531803
  RHF One-electron energy           -1444.437346672593
  RHF Two-electron energy             524.138029984872
  RHF Kinetic energy                  624.654947074678
  RHF Nuclear energy                  295.576063155918
  RHF Virial quotient                  -1.000109350702

 !RHF STATE 1.1 Dipole moment           1.73871238    -1.16253368     0.38931541
 Dipole moment /Debye                   4.41936606    -2.95486588     0.98954107

 Orbital energies:

           1.1          2.1          3.1          4.1          5.1          6.1          7.1          8.1          9.1         10.1
    -91.872141   -15.599961   -15.593510   -11.367088   -11.269293   -11.238070    -8.877331    -6.559989    -6.556602    -6.555761

          11.1         12.1         13.1         14.1         15.1         16.1         17.1         18.1         19.1         20.1
     -1.311961    -1.206741    -1.037566    -0.968221    -0.877126    -0.788365    -0.735331    -0.700473    -0.653554    -0.628551

          21.1         22.1         23.1         24.1         25.1         26.1         27.1         28.1         29.1         30.1
     -0.567238    -0.545394    -0.532837    -0.511376    -0.492995    -0.406372    -0.316178    -0.310617     0.157179     0.165214


 HOMO     28.1    -0.310617 =      -8.4523eV
 LUMO     29.1     0.157179 =       4.2771eV
 LUMO-HOMO         0.467796 =      12.7294eV

 Orbitals saved in record  2100.2


 **********************************************************************************************************************************
 DATASETS  * FILE   NREC   LENGTH (MB)   RECORD NAMES
              1      19      139.47       500      610      700      900      950      970     1000      129      960     1100   
                                          VAR    BASINP    GEOM    SYMINP    ZMAT    AOBASIS   BASIS     P2S    ABASIS      S 
                                         1400     1410     1200     1210     1080     1600     1650     1300     1700   
                                           T        V       H0       H01     AOSYM     SMH    MOLCAS    ERIS     OPER   

              2       4        0.86       700     1000      520     2100   
                                         GEOM     BASIS   MCVARS     RHF  

 PROGRAMS   *        TOTAL    HF-SCF       INT
 CPU TIMES  *         3.94      1.85      2.00
 REAL TIME  *         4.76 SEC
 DISK USED  *       509.29 MB
 **********************************************************************************************************************************


 PROGRAM * PAPT (Closed-shell)     Authors: C. Hampel, H.-J. Werner, 1991, P.J. Knowles, 2021


 CORETYPE=SMALL

 Convergence thresholds:  THRVAR = 1.00D-08  THRDEN = 1.00D-06

 Number of core orbitals:           1 (   1 )
 Number of closed-shell orbitals:  27 (  27 )
 Number of external orbitals:     100 ( 100 )

 Molecular orbitals read from record     2100.2  Type=RHF/CANONICAL  

 Checking core orbitals using projection, core_type=SMALL
 Threshold for active space selection:  0.30


  Number of target functions:              1

 Number of N-1 electron functions:              27
 Number of N-2 electron functions:             378
 Number of singly external CSFs:              2700
 Number of doubly external CSFs:           3646350
 Total number of CSFs:                     3649051

 Length of J-op  integral file:               0.00 MB
 Length of K-op  integral file:               1.19 MB

 Integral transformation finished. Total CPU:   0.78 sec, npass=  1  Memory used:  10.24 MW

 Reference energy:                   -624.72325353

                        CORR.ENERGY   TOTAL ENERGY   ENERGY CHANGE
 MP2:                   -0.90077801  -625.62403154    -0.90077801

 SCS-MP2 correlation energy:           -0.88189013   (PS=  1.200000  PT=  0.333333)
 SCS-MP2 total energy:               -625.60514366
 Iteration:   1     0.2205D+00
 Iteration:   2     0.5599D+00
 Iteration:   3     0.8613D-01
 Iteration:   4     0.2749D+00
 Iteration:   5     0.3713D-01
 Iteration:   6     0.1611D+00
 Iteration:   7     0.2363D-01
 Iteration:   8     0.4821D-01
 Iteration:   9     0.2135D-01
 Iteration:  10     0.1289D-01
 Iteration:  11     0.2731D-01
 Iteration:  12     0.5971D-02
 Iteration:  13     0.3114D-01
 Iteration:  14     0.2914D-02
 Iteration:  15     0.3749D-02
 Iteration:  16     0.1330D-02
 Iteration:  17     0.8233D-03
 Iteration:  18     0.1050D-02
 Iteration:  19     0.3340D-03
 Iteration:  20     0.4691D-02
 Iteration:  21     0.2147D-03
 Iteration:  22     0.1246D-02
 Iteration:  23     0.1519D-03
 Iteration:  24     0.2154D-02
 Iteration:  25     0.5323D-04
 PAPT operator written to  7000.1
 PAPT orbitals and eigenvalues written to  7000.2

 MP3(D):                -0.94706005  -625.67031358    -0.04628205



 RESULTS
 =======

  Reference energy                   -624.723253531802

  Correlated core orbitals:             2.1       3.1       4.1       5.1       6.1       7.1       8.1       9.1      10.1
  Orbital energies:                   -15.6000  -15.5935  -11.3671  -11.2693  -11.2381   -8.8773   -6.5600   -6.5566   -6.5558

  MP3 core-core energy                 -0.006934326325
  MP3 core-valence energy              -0.012856675244
  MP3 valence correlation energy       -0.927269050304

  MP3 singlet pair energy              -0.622376855862
  MP3 triplet pair energy              -0.324683196011
  MP3 correlation energy               -0.947060051873

 !MP3 total energy                   -625.670313583676

 Timing summary (sec):

 STEP                 CPU(USER)    SYS     CPU(TOT)    WALL
 Transformation          0.88      0.07      0.95      0.95
 CCSD iterations        34.92      0.16     35.08     31.14

 Program statistics:

 Available memory in ccsd:              3145725056
 Min. memory needed in ccsd:               9487275
 Max. memory used in ccsd:                12827607
 Max. memory used in cckext:              12789552 ( 1 integral passes)



 **********************************************************************************************************************************
 DATASETS  * FILE   NREC   LENGTH (MB)   RECORD NAMES
              1      21      210.85       500      610      700      900      950      970     1000      129      960     1100   
                                          VAR    BASINP    GEOM    SYMINP    ZMAT    AOBASIS   BASIS     P2S    ABASIS      S 
                                         1400     1410     1200     1210     1080     1600     1650     1300     1700     1380   
                                           T        V       H0       H01     AOSYM     SMH    MOLCAS    ERIS     OPER     JKOP   
                                         7000   
                                        PAPT AO    

              2       5        1.33       700     1000      520     2100     7000   
                                         GEOM     BASIS   MCVARS     RHF     PAPT   

 PROGRAMS   *        TOTAL      PAPT    HF-SCF       INT
 CPU TIMES  *        35.72     31.78      1.85      2.00
 REAL TIME  *        36.88 SEC
 DISK USED  *       509.29 MB
 **********************************************************************************************************************************


 PROGRAM * MP2 (Closed-shell)     Authors: C. Hampel, H.-J. Werner, 1991, M. Deegan, P.J. Knowles, 1992


 CORETYPE=SMALL

 Convergence thresholds:  THRVAR = 1.00D-08  THRDEN = 1.00D-06

 Number of core orbitals:           1 (   1 )
 Number of closed-shell orbitals:  27 (  27 )
 Number of external orbitals:     100 ( 100 )

 Molecular orbitals read from record     7000.2  Type=PAPT/CANONICAL (state 1.1)

 Checking core orbitals using projection, core_type=SMALL
 Threshold for active space selection:  0.30


  Number of target functions:              1

 Number of N-1 electron functions:              27
 Number of N-2 electron functions:             378
 Number of singly external CSFs:              2700
 Number of doubly external CSFs:           3646350
 Total number of CSFs:                     3649051

 Length of J-op  integral file:               0.00 MB
 Length of K-op  integral file:               1.19 MB

 Integral transformation finished. Total CPU:   0.79 sec, npass=  1  Memory used:  10.24 MW
 Orbital energies read from record       7000.2  Type=PAPT/CANONICAL (state 1.1)

 Memory needed for MP2:                      0.08 MW

 SCS-MP2 correlation energy:           -0.942028324996   (PS=  1.200000  PT=  0.333333)
 SCS-MP2 total energy:               -625.665281856799


  Reference energy                   -624.723253531803

  Correlated core orbitals:             2.1       3.1       4.1       5.1       6.1       7.1       8.1       9.1      10.1
  Orbital energies:                   -16.0264  -15.9915  -11.4799  -11.3699  -11.3185   -9.4223   -6.8920   -7.0269   -7.0635

  MP2 core-core energy                 -0.006941718538
  MP2 core-valence energy              -0.012771119546
  MP2 valence correlation energy       -0.936805868129

  MP2 singlet pair energy              -0.600336571186
  MP2 triplet pair energy              -0.356182135028
  MP2 correlation energy               -0.956518706214

 !MP2 total energy                   -625.679772238016


 **********************************************************************************************************************************
 DATASETS  * FILE   NREC   LENGTH (MB)   RECORD NAMES
              1      21      210.85       500      610      700      900      950      970     1000      129      960     1100   
                                          VAR    BASINP    GEOM    SYMINP    ZMAT    AOBASIS   BASIS     P2S    ABASIS      S 
                                         1400     1410     1200     1210     1080     1600     1650     1300     1700     1380   
                                           T        V       H0       H01     AOSYM     SMH    MOLCAS    ERIS     OPER     JKOP   
                                         7000   
                                        PAPT AO    

              2       5        1.33       700     1000      520     2100     7000   
                                         GEOM     BASIS   MCVARS     RHF     PAPT   

 PROGRAMS   *        TOTAL       MP2      PAPT    HF-SCF       INT
 CPU TIMES  *        37.41      1.69     31.78      1.85      2.00
 REAL TIME  *        38.78 SEC
 DISK USED  *       509.29 MB
 **********************************************************************************************************************************

 Dump information in style XML to xml output                                                                      

 Orbitals will not be exported.

 **********************************************************************************************************************************

 MP2/cc-pVDZ energy=   -625.679772238016

             MP2            PAPT          HF-SCF
   -625.67977224   -625.67031358   -624.72325353
 **********************************************************************************************************************************
 Molpro calculation terminated
