
 Working directory              : /var/folders/2v/xbgp75_9785319ghcgb4zr4r0000gr/T//molpro.dcnJIwie2J/
 Global scratch directory       : /var/folders/2v/xbgp75_9785319ghcgb4zr4r0000gr/T//molpro.dcnJIwie2J/
 Wavefunction directory         : /Users/peterk/wfu/
 Main file repository           : /var/folders/2v/xbgp75_9785319ghcgb4zr4r0000gr/T//molpro.dcnJIwie2J/

 id        : peterk

 Nodes        nprocs
 pjk2022.local    1
 GA implementation: MPI file
 GA implementation (serial work in mppx): MPI file

 Using customized tuning parameters: mindgm=1; mindgv=20; mindgc=4; mindgr=1; noblas=0; minvec=7
 default implementation of scratch files=df  


 Variables initialized (1037), CPU time= 0.01 sec
 
 
 
 geometry={
 6
  N     0.0000000   -0.7296734   -0.3498847
  N     0.0000000    0.7296734   -0.3498847
  H    -0.8019523    1.0488615    0.1774826
  H     0.8019523    1.0488615    0.1774826
  H    -0.8019523   -1.0488615    0.1774826
  H     0.8019523   -1.0488615    0.1774826
 }
 basis=cc-pVDZ
 core,small
 
 
 hf; ccsd
 
 
 
 {put,xml;noorbitals,nobasis}
 Commands initialized (841), CPU time= 0.00 sec, 716 directives.
 Default parameters read. Elapsed time= 0.06 sec

 Checking input...
 Passed
1


                                         ***  PROGRAM SYSTEM MOLPRO  ***
                                       Copyright, TTI GmbH Stuttgart, 2015
                                    Version 2023.1 linked Sat Jul 22 07:59:25 2023


 **********************************************************************************************************************************
 LABEL *                                                                                                                                                                 
  64 bit serial version                                                                  DATE: 02-Aug-23          TIME: 09:07:31  
 **********************************************************************************************************************************

 SHA1:             401d111a1dbfa49388eacdf0424f85138b2d30d0
 **********************************************************************************************************************************

 Memory per process:      3146 MW
 Total memory per node:   4194 MW
 Total GA space:          1049 MW

 GA preallocation disabled
 GA check enabled

 Geometry recognized as XYZ


 Variable memory set to 3145.7 MW

 SETTING BASIS          =    CC-PVDZ


 Recomputing integrals since basis changed


 Using spherical harmonics

 Library entry N      S cc-pVDZ              selected for orbital group  1
 Library entry N      P cc-pVDZ              selected for orbital group  1
 Library entry N      D cc-pVDZ              selected for orbital group  1
 Library entry H      S cc-pVDZ              selected for orbital group  2
 Library entry H      P cc-pVDZ              selected for orbital group  2


 PROGRAM * SEWARD (Integral evaluation for generally contracted gaussian basis sets)     Author: Roland Lindh, 1990

 Geometry written to block  1 of record 700


 Point group  C2v 



 ATOMIC COORDINATES

 NR  ATOM    CHARGE       X              Y              Z

   1  N       7.00    0.000000000   -1.378882886   -0.661186258
   2  N       7.00    0.000000000    1.378882886   -0.661186258
   3  H       1.00   -1.515470212    1.982060978    0.335393506
   4  H       1.00    1.515470212    1.982060978    0.335393506
   5  H       1.00   -1.515470212   -1.982060978    0.335393506
   6  H       1.00    1.515470212   -1.982060978    0.335393506

 Bond lengths in Bohr (Angstrom)

 1-2  2.757765773  1-5  1.911451019  1-6  1.911451019  2-3  1.911451019  2-4  1.911451019
     ( 1.459346800)     ( 1.011496319)     ( 1.011496319)     ( 1.011496319)     ( 1.011496319)

 Bond angles

  1-2-3  108.39464298   1-2-4  108.39464298   2-1-5  108.39464298   2-1-6  108.39464298

  3-2-4  104.90296938   5-1-6  104.90296938

 NUCLEAR CHARGE:                   18
 NUMBER OF PRIMITIVE AOS:          82
 NUMBER OF SYMMETRY AOS:           80
 NUMBER OF CONTRACTIONS:           48   (   15A1  +    9B1  +   15B2  +    9A2  )
 NUMBER OF INNER CORE ORBITALS:     0   (    0A1  +    0B1  +    0B2  +    0A2  )
 NUMBER OF OUTER CORE ORBITALS:     2   (    1A1  +    0B1  +    1B2  +    0A2  )
 NUMBER OF VALENCE ORBITALS:       12   (    4A1  +    2B1  +    4B2  +    2A2  )


 NUCLEAR REPULSION ENERGY   41.31325580

 Eigenvalues of metric

         1 0.209E-01 0.439E-01 0.127E+00 0.164E+00 0.196E+00 0.426E+00 0.492E+00 0.987E+00
         2 0.414E-01 0.101E+00 0.162E+00 0.583E+00 0.715E+00 0.112E+01 0.127E+01 0.157E+01
         3 0.685E-02 0.370E-01 0.529E-01 0.121E+00 0.148E+00 0.266E+00 0.392E+00 0.436E+00
         4 0.325E-01 0.530E-01 0.122E+00 0.438E+00 0.618E+00 0.102E+01 0.109E+01 0.128E+01


 Contracted 2-electron integrals neglected if value below      1.0D-11
 AO integral compression algorithm  1   Integral accuracy      1.0D-11

     1.573 MB (compressed) written to integral file ( 60.7%)


 NUMBER OF SORTED TWO-ELECTRON INTEGRALS:     185340.     BUFFER LENGTH:  32768
 NUMBER OF SEGMENTS:   1  SEGMENT LENGTH:     185340      RECORD LENGTH: 524288

 Memory used in sort:       0.74 MW

 SORT1 READ      312920. AND WROTE      171592. INTEGRALS IN      1 RECORDS. CPU TIME:     0.01 SEC, REAL TIME:     0.00 SEC
 SORT2 READ      171592. AND WROTE      185340. INTEGRALS IN      6 RECORDS. CPU TIME:     0.01 SEC, REAL TIME:     0.01 SEC

 FILE SIZES:   FILE 1:    31.7 MBYTE,  FILE 4:     4.3 MBYTE,   TOTAL:     36.0 MBYTE

 OPERATOR DM      FOR CENTER  0  COORDINATES:    0.000000    0.000000    0.000000


 **********************************************************************************************************************************
 DATASETS  * FILE   NREC   LENGTH (MB)   RECORD NAMES
              1      19       29.58       500      610      700      900      950      970     1000      129      960     1100   
                                          VAR    BASINP    GEOM    SYMINP    ZMAT    AOBASIS   BASIS     P2S    ABASIS      S 
                                         1400     1410     1200     1210     1080     1600     1650     1300     1700   
                                           T        V       H0       H01     AOSYM     SMH    MOLCAS    ERIS     OPER   

 PROGRAMS   *        TOTAL       INT
 CPU TIMES  *         0.33      0.24
 REAL TIME  *         0.93 SEC
 DISK USED  *        34.70 MB
 **********************************************************************************************************************************


 Program * Restricted Hartree-Fock

 Orbital guess generated from atomic densities. Full valence occupancy:    5   2   5   2

 Initial occupancy:   4   1   3   1

 NELEC=   18   SYM=1   MS2= 0   THRE=1.0D-08   THRD=3.2D-06   THRG=3.2D-06  HFMA2=F  DIIS_START=2   DIIS_MAX=10   DIIS_INCORE=F

 Level shifts:    0.00 (CLOSED)    0.00 (OPEN)    0.30 (GAP_MIN)

 ITER           ETOT              DE          GRAD        DDIFF     DIIS  NEXP   TIME(IT)  TIME(TOT)  DIAG
   1     -111.14086363    -111.14086363     0.00D+00     0.30D+00     0     0       0.00      0.00    start
   2     -111.16931868      -0.02845505     0.17D-01     0.35D-01     1     0       0.00      0.00    diag
   3     -111.17150080      -0.00218212     0.51D-02     0.84D-02     2     0       0.01      0.01    diag
   4     -111.17176796      -0.00026716     0.15D-02     0.31D-02     3     0       0.00      0.01    diag
   5     -111.17179019      -0.00002223     0.40D-03     0.80D-03     4     0       0.00      0.01    diag
   6     -111.17179184      -0.00000165     0.73D-04     0.20D-03     5     0       0.00      0.01    diag
   7     -111.17179201      -0.00000017     0.20D-04     0.79D-04     6     0       0.00      0.01    diag
   8     -111.17179202      -0.00000001     0.41D-05     0.17D-04     7     0       0.00      0.01    fixocc
   9     -111.17179202      -0.00000000     0.78D-06     0.28D-05     8     0       0.00      0.01    diag
  10     -111.17179202      -0.00000000     0.25D-06     0.46D-06     0     0       0.00      0.01    diag/orth

 Final occupancy:   4   1   3   1

 !RHF STATE 1.1 Energy               -111.171792016747
  RHF One-electron energy            -232.727345862992
  RHF Two-electron energy              80.242298044579
  RHF Kinetic energy                  111.066989862400
  RHF Nuclear energy                   41.313255801666
  RHF Virial quotient                  -1.000943594082

 !RHF STATE 1.1 Dipole moment           0.00000000     0.00000000     1.24983251
 Dipole moment /Debye                   0.00000000     0.00000000     3.17675739

 Orbital energies:

           1.1          2.1          3.1          4.1          5.1          6.1
    -15.566674    -1.246389    -0.628399    -0.488693     0.174192     0.812509

           1.2          2.2          3.2
     -0.697912     0.223652     0.687865

           1.3          2.3          3.3          4.3          5.3
    -15.566279    -1.008972    -0.352893     0.220624     0.435401

           1.4          2.4          3.4
     -0.565164     0.310674     0.860151


 HOMO      3.3    -0.352893 =      -9.6027eV
 LUMO      5.1     0.174192 =       4.7400eV
 LUMO-HOMO         0.527085 =      14.3427eV

 Orbitals saved in record  2100.2


 **********************************************************************************************************************************
 DATASETS  * FILE   NREC   LENGTH (MB)   RECORD NAMES
              1      19       29.58       500      610      700      900      950      970     1000      129      960     1100   
                                          VAR    BASINP    GEOM    SYMINP    ZMAT    AOBASIS   BASIS     P2S    ABASIS      S 
                                         1400     1410     1200     1210     1080     1600     1650     1300     1700   
                                           T        V       H0       H01     AOSYM     SMH    MOLCAS    ERIS     OPER   

              2       4        0.47       700     1000      520     2100   
                                         GEOM     BASIS   MCVARS     RHF  

 PROGRAMS   *        TOTAL    HF-SCF       INT
 CPU TIMES  *         0.34      0.01      0.24
 REAL TIME  *         0.94 SEC
 DISK USED  *        34.70 MB
 **********************************************************************************************************************************


 PROGRAM * CCSD (Closed-shell coupled cluster)     Authors: C. Hampel, H.-J. Werner, 1991, M. Deegan, P.J. Knowles, 1992


 CORETYPE=SMALL

 Convergence thresholds:  THRVAR = 1.00D-08  THRDEN = 1.00D-06

 Number of closed-shell orbitals:   9 (   4   1   3   1 )
 Number of external orbitals:      39 (  11   8  12   8 )

 Molecular orbitals read from record     2100.2  Type=RHF/CANONICAL  

 Number of N-1 electron functions:               9
 Number of N-2 electron functions:              45
 Number of singly external CSFs:                96
 Number of doubly external CSFs:             15729
 Total number of CSFs:                       15826

 Length of J-op  integral file:               0.00 MB
 Length of K-op  integral file:               0.10 MB
 Length of 3-ext integral record:             0.00 MB

 Integral transformation finished. Total CPU:   0.00 sec, npass=  1  Memory used:   0.12 MW

 Reference energy:                   -111.17179202

 MP2 singlet pair energy:              -0.22716916
 MP2 triplet pair energy:              -0.12832949
 MP2 correlation energy:               -0.35549865
 MP2 total energy:                   -111.52729066

 SCS-MP2 correlation energy:           -0.35245245   (PS=  1.200000  PT=  0.333333)
 SCS-MP2 total energy:               -111.52424447

 ITER.      SQ.NORM     CORR.ENERGY   TOTAL ENERGY   ENERGY CHANGE        DEN1      VAR(S)    VAR(P)  DIIS     TIME  TIME/IT
   1      1.11508986    -0.37795593  -111.54974795    -0.02245729    -0.01406343  0.61D-03  0.17D-02  1  1     0.48     0.01
   2      1.12357403    -0.38015124  -111.55194326    -0.00219531    -0.00911364  0.24D-04  0.14D-03  2  2     0.49     0.01
   3      1.12564233    -0.38028419  -111.55207620    -0.00013295    -0.00135106  0.58D-05  0.83D-05  3  3     0.50     0.01
   4      1.12619848    -0.38031311  -111.55210513    -0.00002893    -0.00024745  0.11D-05  0.60D-06  4  4     0.52     0.01
   5      1.12631107    -0.38031356  -111.55210558    -0.00000045    -0.00003051  0.37D-06  0.72D-07  5  5     0.53     0.01
   6      1.12635201    -0.38031249  -111.55210451     0.00000107    -0.00000631  0.83D-07  0.14D-07  6  6     0.54     0.01
   7      1.12637467    -0.38031229  -111.55210431     0.00000020    -0.00000166  0.68D-08  0.30D-08  6  1     0.55     0.01
   8      1.12638155    -0.38031214  -111.55210416     0.00000014     0.00000066  0.35D-09  0.26D-09  6  2     0.56     0.01

 Norm of t1 vector:      0.03677581      S-energy:    -0.00000024      T1 diagnostic:  0.00612930
                                                                       D1 diagnostic:  0.01450257
                                                                       D2 diagnostic:  0.14398313 (internal)


 RESULTS
 =======

  Reference energy                   -111.171792016747

  Correlated core orbitals:             1.1       1.3
  Orbital energies:                   -15.5667  -15.5663

  CCSD core-core energy                -0.001071013354
  CCSD core-valence energy             -0.003757415436
  CCSD valence correlation energy      -0.375483715904

  CCSD singlet pair energy             -0.264570884051
  CCSD triplet pair energy             -0.115741018629
  CCSD correlation energy              -0.380312144694

 !CCSD total energy                  -111.552104161441

 Timing summary (sec):

 STEP                 CPU(USER)    SYS     CPU(TOT)    WALL
 CCSD iterations         0.56      0.01      0.57      0.10

 Program statistics:

 Available memory in ccsd:              3145727672
 Min. memory needed in ccsd:                 52971
 Max. memory used in ccsd:                   65025
 Max. memory used in cckext:                 93845 ( 8 integral passes)



 **********************************************************************************************************************************
 DATASETS  * FILE   NREC   LENGTH (MB)   RECORD NAMES
              1      20       30.42       500      610      700      900      950      970     1000      129      960     1100   
                                          VAR    BASINP    GEOM    SYMINP    ZMAT    AOBASIS   BASIS     P2S    ABASIS      S 
                                         1400     1410     1200     1210     1080     1600     1650     1300     1700     1380   
                                           T        V       H0       H01     AOSYM     SMH    MOLCAS    ERIS     OPER     JKOP   

              2       4        0.47       700     1000      520     2100   
                                         GEOM     BASIS   MCVARS     RHF  

 PROGRAMS   *        TOTAL      CCSD    HF-SCF       INT
 CPU TIMES  *         0.46      0.11      0.01      0.24
 REAL TIME  *         1.09 SEC
 DISK USED  *        34.70 MB
 **********************************************************************************************************************************

 Dump information in style XML to xml output                                                                      

 Orbitals will not be exported.

 **********************************************************************************************************************************

 CCSD/cc-pVDZ energy=   -111.552104161441

            CCSD          HF-SCF
   -111.55210416   -111.17179202
 **********************************************************************************************************************************
 Molpro calculation terminated
