
 Working directory              : /var/folders/2v/xbgp75_9785319ghcgb4zr4r0000gr/T//molpro.GFV1rnGe5p/
 Global scratch directory       : /var/folders/2v/xbgp75_9785319ghcgb4zr4r0000gr/T//molpro.GFV1rnGe5p/
 Wavefunction directory         : /Users/peterk/wfu/
 Main file repository           : /var/folders/2v/xbgp75_9785319ghcgb4zr4r0000gr/T//molpro.GFV1rnGe5p/

 id        : peterk

 Nodes        nprocs
 pjk2022.local    1
 GA implementation: MPI file
 GA implementation (serial work in mppx): MPI file

 Using customized tuning parameters: mindgm=1; mindgv=20; mindgc=4; mindgr=1; noblas=0; minvec=7
 default implementation of scratch files=df  


 Variables initialized (1037), CPU time= 0.00 sec
 
 
 
 geometry={
 20
  C    -0.0207058   -0.7667877    0.0000000
  C     0.0207058    0.7667877    0.0000000
  C     0.6956377    1.3103885    1.2529874
  C     0.6956377    1.3103885   -1.2529874
  H    -1.0164326    1.1164572    0.0000000
  C    -0.6956377   -1.3103885   -1.2529874
  C    -0.6956377   -1.3103885    1.2529874
  H     1.0164326   -1.1164572    0.0000000
  H     0.8029041    2.3913793    1.1998404
  H     0.1285111    1.0817107    2.1497585
  H     1.6917129    0.8829484    1.3708423
  H     0.1285111    1.0817107   -2.1497585
  H     0.8029041    2.3913793   -1.1998404
  H     1.6917129    0.8829484   -1.3708423
  H    -0.8029041   -2.3913793    1.1998404
  H    -0.1285111   -1.0817107    2.1497585
  H    -1.6917129   -0.8829484    1.3708423
  H    -0.8029041   -2.3913793   -1.1998404
  H    -1.6917129   -0.8829484   -1.3708423
  H    -0.1285111   -1.0817107   -2.1497585
 }
 basis=cc-pVTZ
 core,small
 
 
 hf; ccsd
 
 
 
 {put,xml;noorbitals,nobasis}
 Commands initialized (841), CPU time= 0.01 sec, 716 directives.
 Default parameters read. Elapsed time= 0.09 sec

 Checking input...
 Passed
1


                                         ***  PROGRAM SYSTEM MOLPRO  ***
                                       Copyright, TTI GmbH Stuttgart, 2015
                                    Version 2023.1 linked Sat Jul 22 07:59:25 2023


 **********************************************************************************************************************************
 LABEL *                                                                                                                                                                 
  64 bit serial version                                                                  DATE: 02-Aug-23          TIME: 09:23:39  
 **********************************************************************************************************************************

 SHA1:             401d111a1dbfa49388eacdf0424f85138b2d30d0
 **********************************************************************************************************************************

 Memory per process:      3146 MW
 Total memory per node:   4194 MW
 Total GA space:          1049 MW

 GA preallocation disabled
 GA check enabled

 Geometry recognized as XYZ


 Variable memory set to 3145.7 MW

 SETTING BASIS          =    CC-PVTZ


 Recomputing integrals since basis changed


 Using spherical harmonics

 Library entry C      S cc-pVTZ              selected for orbital group  1
 Library entry C      P cc-pVTZ              selected for orbital group  1
 Library entry C      D cc-pVTZ              selected for orbital group  1
 Library entry C      F cc-pVTZ              selected for orbital group  1
 Library entry H      S cc-pVTZ              selected for orbital group  2
 Library entry H      P cc-pVTZ              selected for orbital group  2
 Library entry H      D cc-pVTZ              selected for orbital group  2


 PROGRAM * SEWARD (Integral evaluation for generally contracted gaussian basis sets)     Author: Roland Lindh, 1990

 Geometry written to block  1 of record 700


 Point group  C2h 



 ATOMIC COORDINATES

 NR  ATOM    CHARGE       X              Y              Z

   1  C       6.00   -0.039128291   -1.449018749    0.000000000
   2  C       6.00    0.039128291    1.449018749    0.000000000
   3  C       6.00    1.314564735    2.476275382    2.367803024
   4  C       6.00    1.314564735    2.476275382   -2.367803024
   5  C       6.00   -1.314564735   -2.476275382   -2.367803024
   6  C       6.00   -1.314564735   -2.476275382    2.367803024
   7  H       1.00   -1.920779238    2.109798338    0.000000000
   8  H       1.00    1.920779238   -2.109798338    0.000000000
   9  H       1.00    1.517268853    4.519051937    2.267369749
  10  H       1.00    1.517268853    4.519051937   -2.267369749
  11  H       1.00   -1.517268853   -4.519051937    2.267369749
  12  H       1.00   -1.517268853   -4.519051937   -2.267369749
  13  H       1.00    0.242850783    2.044136969    4.062454799
  14  H       1.00    0.242850783    2.044136969   -4.062454799
  15  H       1.00   -0.242850783   -2.044136969    4.062454799
  16  H       1.00   -0.242850783   -2.044136969   -4.062454799
  17  H       1.00    3.196874062    1.668530658    2.590516507
  18  H       1.00    3.196874062    1.668530658   -2.590516507
  19  H       1.00   -3.196874062   -1.668530658    2.590516507
  20  H       1.00   -3.196874062   -1.668530658   -2.590516507

 Bond lengths in Bohr (Angstrom)

 1-2  2.899093898  1-5  2.878972989  1-6  2.878972989  1-8  2.068300556  2-3  2.878972989
     ( 1.534134423)     ( 1.523486897)     ( 1.523486897)     ( 1.094497519)     ( 1.523486897)

  2- 4  2.878972989   2- 7  2.068300556   3- 9  2.055264425   3-13  2.051136037   3-17  2.060374053
       ( 1.523486897)       ( 1.094497519)       ( 1.087599096)       ( 1.085414447)       ( 1.090302995)

  4-10  2.055264425   4-14  2.051136037   4-18  2.060374053   5-12  2.055264425   5-16  2.051136037
       ( 1.087599096)       ( 1.085414447)       ( 1.090302995)       ( 1.087599096)       ( 1.085414447)

  5-20  2.060374053   6-11  2.055264425   6-15  2.051136037   6-19  2.060374053
       ( 1.090302995)       ( 1.087599096)       ( 1.085414447)       ( 1.090302995)

 Bond angles

  1- 2- 3  111.63189875   1- 2- 4  111.63189875   1- 2- 7  107.08464970   1- 5-12  110.98656281

  1- 5-16  111.89191699   1- 5-20  110.71670868   1- 6-11  110.98656281   1- 6-15  111.89191699

  1- 6-19  110.71670868   2- 1- 5  111.63189875   2- 1- 6  111.63189875   2- 1- 8  107.08464970

  2- 3- 9  110.98656281   2- 3-13  111.89191699   2- 3-17  110.71670868   2- 4-10  110.98656281

  2- 4-14  111.89191699   2- 4-18  110.71670868   3- 2- 4  110.66102955   3- 2- 7  107.80666685

  4-2-7  107.80666685   5-1-6  110.66102955   5-1-8  107.80666685   6-1-8  107.80666685

  9- 3-13  107.53618669   9- 3-17  107.74823130  10- 4-14  107.53618669  10- 4-18  107.74823130

 11- 6-15  107.53618669  11- 6-19  107.74823130  12- 5-16  107.53618669  12- 5-20  107.74823130

 13- 3-17  107.78457437  14- 4-18  107.78457437  15- 6-19  107.78457437  16- 5-20  107.78457437

 NUCLEAR CHARGE:                   50
 NUMBER OF PRIMITIVE AOS:         520
 NUMBER OF SYMMETRY AOS:          476
 NUMBER OF CONTRACTIONS:          376   (  102Ag  +   86Au  +  102Bu  +   86Bg  )
 NUMBER OF INNER CORE ORBITALS:     0   (    0Ag  +    0Au  +    0Bu  +    0Bg  )
 NUMBER OF OUTER CORE ORBITALS:     6   (    2Ag  +    1Au  +    2Bu  +    1Bg  )
 NUMBER OF VALENCE ORBITALS:       38   (   11Ag  +    8Au  +   11Bu  +    8Bg  )


 NUCLEAR REPULSION ENERGY  264.52669409

 Eigenvalues of metric

         1 0.810E-03 0.858E-03 0.114E-02 0.149E-02 0.160E-02 0.218E-02 0.419E-02 0.456E-02
         2 0.570E-03 0.116E-02 0.136E-02 0.153E-02 0.223E-02 0.467E-02 0.835E-02 0.941E-02
         3 0.380E-03 0.828E-03 0.106E-02 0.121E-02 0.134E-02 0.164E-02 0.226E-02 0.253E-02
         4 0.865E-03 0.113E-02 0.125E-02 0.145E-02 0.267E-02 0.374E-02 0.615E-02 0.769E-02


 Contracted 2-electron integrals neglected if value below      1.0D-11
 AO integral compression algorithm  1   Integral accuracy      1.0D-11

     3149.136 MB (compressed) written to integral file ( 52.2%)


 NUMBER OF SORTED TWO-ELECTRON INTEGRALS:  633026982.     BUFFER LENGTH:  32768
 NUMBER OF SEGMENTS:  20  SEGMENT LENGTH:   31997916      RECORD LENGTH: 524288

 Memory used in sort:      32.55 MW

 SORT1 READ   754006312. AND WROTE   632830404. INTEGRALS IN   1821 RECORDS. CPU TIME:     9.97 SEC, REAL TIME:    20.53 SEC
 SORT2 READ   632830404. AND WROTE   633026982. INTEGRALS IN  12013 RECORDS. CPU TIME:     3.92 SEC, REAL TIME:    12.25 SEC

 FILE SIZES:   FILE 1:  3182.4 MBYTE,  FILE 4:  7637.9 MBYTE,   TOTAL:  10820.3 MBYTE

 OPERATOR DM      FOR CENTER  0  COORDINATES:    0.000000    0.000000    0.000000


 **********************************************************************************************************************************
 DATASETS  * FILE   NREC   LENGTH (MB)   RECORD NAMES
              1      19     2631.47       500      610      700      900      950      970     1000      129      960     1100   
                                          VAR    BASINP    GEOM    SYMINP    ZMAT    AOBASIS   BASIS     P2S    ABASIS      S 
                                         1400     1410     1200     1210     1080     1600     1650     1300     1700   
                                           T        V       H0       H01     AOSYM     SMH    MOLCAS    ERIS     OPER   

 PROGRAMS   *        TOTAL       INT
 CPU TIMES  *        72.93     72.83
 REAL TIME  *       102.73 SEC
 DISK USED  *        10.08 GB
 **********************************************************************************************************************************


 Program * Restricted Hartree-Fock

 Orbital guess generated from atomic densities. Full valence occupancy:   13   9  13   9

 Initial occupancy:   8   5   7   5

 NELEC=   50   SYM=1   MS2= 0   THRE=1.0D-08   THRD=3.2D-06   THRG=3.2D-06  HFMA2=F  DIIS_START=2   DIIS_MAX=10   DIIS_INCORE=F

 Level shifts:    0.00 (CLOSED)    0.00 (OPEN)    0.30 (GAP_MIN)

 ITER           ETOT              DE          GRAD        DDIFF     DIIS  NEXP   TIME(IT)  TIME(TOT)  DIAG
   1     -235.35221329    -235.35221329     0.00D+00     0.73D-01     0     0       0.86      1.62    start
   2     -235.43335346      -0.08114017     0.51D-02     0.72D-02     1     0       0.86      2.48    diag
   3     -235.44387049      -0.01051703     0.20D-02     0.22D-02     2     0       0.88      3.36    diag
   4     -235.44552580      -0.00165530     0.66D-03     0.82D-03     3     0       0.90      4.26    diag
   5     -235.44557690      -0.00005110     0.13D-03     0.18D-03     4     0       0.90      5.16    diag
   6     -235.44558186      -0.00000496     0.38D-04     0.71D-04     5     0       0.87      6.03    diag
   7     -235.44558197      -0.00000011     0.44D-05     0.13D-04     6     0       0.87      6.90    diag
   8     -235.44558197      -0.00000000     0.82D-06     0.21D-05     7     0       0.86      7.76    fixocc
   9     -235.44558197      -0.00000000     0.20D-06     0.36D-06     0     0       0.86      8.62    diag

 Final occupancy:   8   5   7   5

 !RHF STATE 1.1 Energy               -235.445581971876
  RHF One-electron energy            -840.631259537937
  RHF Two-electron energy             340.658983477882
  RHF Kinetic energy                  235.344843236433
  RHF Nuclear energy                  264.526694088179
  RHF Virial quotient                  -1.000428047346

 !RHF STATE 1.1 Dipole moment           0.00000000     0.00000000     0.00000000
 Dipole moment /Debye                   0.00000000     0.00000000     0.00000000

 Orbital energies:

           1.1          2.1          3.1          4.1          5.1          6.1          7.1          8.1          9.1         10.1
    -11.217862   -11.203631    -1.106649    -0.830827    -0.622908    -0.589998    -0.451219    -0.436864     0.141989     0.199073

           1.2          2.2          3.2          4.2          5.2          6.2          7.2
    -11.203654    -0.942784    -0.581319    -0.527534    -0.500344     0.169968     0.247581

           1.3          2.3          3.3          4.3          5.3          6.3          7.3          8.3          9.3
    -11.217255   -11.203632    -1.011647    -0.750411    -0.625980    -0.543995    -0.478031     0.163006     0.166018

           1.4          2.4          3.4          4.4          5.4          6.4          7.4
    -11.203661    -0.911000    -0.541980    -0.509211    -0.444253     0.214241     0.237186


 HOMO      8.1    -0.436864 =     -11.8877eV
 LUMO      9.1     0.141989 =       3.8637eV
 LUMO-HOMO         0.578854 =      15.7514eV

 Orbitals saved in record  2100.2


 **********************************************************************************************************************************
 DATASETS  * FILE   NREC   LENGTH (MB)   RECORD NAMES
              1      19     2631.47       500      610      700      900      950      970     1000      129      960     1100   
                                          VAR    BASINP    GEOM    SYMINP    ZMAT    AOBASIS   BASIS     P2S    ABASIS      S 
                                         1400     1410     1200     1210     1080     1600     1650     1300     1700   
                                           T        V       H0       H01     AOSYM     SMH    MOLCAS    ERIS     OPER   

              2       4        1.31       700     1000      520     2100   
                                         GEOM     BASIS   MCVARS     RHF  

 PROGRAMS   *        TOTAL    HF-SCF       INT
 CPU TIMES  *        81.55      8.62     72.83
 REAL TIME  *       113.42 SEC
 DISK USED  *        10.08 GB
 **********************************************************************************************************************************


 PROGRAM * CCSD (Closed-shell coupled cluster)     Authors: C. Hampel, H.-J. Werner, 1991, M. Deegan, P.J. Knowles, 1992


 CORETYPE=SMALL

 Convergence thresholds:  THRVAR = 1.00D-08  THRDEN = 1.00D-06

 Number of closed-shell orbitals:  25 (   8   5   7   5 )
 Number of external orbitals:     351 (  94  81  95  81 )

 Molecular orbitals read from record     2100.2  Type=RHF/CANONICAL  

 Number of N-1 electron functions:              25
 Number of N-2 electron functions:             325
 Number of singly external CSFs:              2227
 Number of doubly external CSFs:           9631744
 Total number of CSFs:                     9633972

 Length of J-op  integral file:               0.00 MB
 Length of K-op  integral file:               2.51 MB
 Length of 3-ext integral record:             0.00 MB

 Integral transformation finished. Total CPU:  13.43 sec, npass=  1  Memory used:  70.57 MW

 Reference energy:                   -235.44558197

 MP2 singlet pair energy:              -0.79620712
 MP2 triplet pair energy:              -0.37627669
 MP2 correlation energy:               -1.17248381
 MP2 total energy:                   -236.61806578

 SCS-MP2 correlation energy:           -1.18957626   (PS=  1.200000  PT=  0.333333)
 SCS-MP2 total energy:               -236.63515824

 ITER.      SQ.NORM     CORR.ENERGY   TOTAL ENERGY   ENERGY CHANGE        DEN1      VAR(S)    VAR(P)  DIIS     TIME  TIME/IT
   1      1.36665428    -1.23979261  -236.68537458    -0.06730880    -0.03991379  0.32D-02  0.52D-02  1  1   110.81    16.58
   2      1.39112581    -1.24429072  -236.68987270    -0.00449811    -0.02649775  0.51D-04  0.52D-03  2  2   127.40    17.37
   3      1.39787433    -1.24433698  -236.68991896    -0.00004626    -0.00439783  0.14D-04  0.30D-04  3  3   143.00    17.11
   4      1.39974222    -1.24435237  -236.68993434    -0.00001539    -0.00097440  0.80D-06  0.19D-05  4  4   158.83    17.09
   5      1.40000736    -1.24436127  -236.68994324    -0.00000890    -0.00008375  0.73D-07  0.15D-06  5  5   175.47    17.31
   6      1.40004087    -1.24435929  -236.68994126     0.00000198    -0.00000531  0.76D-08  0.10D-07  6  6   191.99    17.41
   7      1.40004358    -1.24435844  -236.68994041     0.00000086    -0.00000232  0.94D-09  0.89D-09  6  1   208.57    17.51
   8      1.40004359    -1.24435844  -236.68994041    -0.00000001     0.00000005  0.13D-09  0.83D-10  6  2   225.31    17.58

 Norm of t1 vector:      0.07438633      S-energy:    -0.00000002      T1 diagnostic:  0.00743863
                                                                       D1 diagnostic:  0.01704584
                                                                       D2 diagnostic:  0.14543579 (internal)


 RESULTS
 =======

  Reference energy                   -235.445581971876

  Correlated core orbitals:             1.1       2.1       1.2       1.3       2.3       1.4
  Orbital energies:                   -11.2179  -11.2036  -11.2037  -11.2173  -11.2036  -11.2037

  CCSD core-core energy                -0.065017395160
  CCSD core-valence energy             -0.037697843223
  CCSD valence correlation energy      -1.141643204051

  CCSD singlet pair energy             -0.890463426385
  CCSD triplet pair energy             -0.353894996731
  CCSD correlation energy              -1.244358442434

 !CCSD total energy                  -236.689940414310

 Timing summary (sec):

 STEP                 CPU(USER)    SYS     CPU(TOT)    WALL
 Transformation         13.53      1.27     14.80     15.03
 CCSD iterations       211.96     11.01    222.97    140.89

 Program statistics:

 Available memory in ccsd:              3145725492
 Min. memory needed in ccsd:              22103642
 Max. memory used in ccsd:                31235633
 Max. memory used in cckext:              25024158 ( 8 integral passes)



 **********************************************************************************************************************************
 DATASETS  * FILE   NREC   LENGTH (MB)   RECORD NAMES
              1      20     3797.77       500      610      700      900      950      970     1000      129      960     1100   
                                          VAR    BASINP    GEOM    SYMINP    ZMAT    AOBASIS   BASIS     P2S    ABASIS      S 
                                         1400     1410     1200     1210     1080     1600     1650     1300     1700     1380   
                                           T        V       H0       H01     AOSYM     SMH    MOLCAS    ERIS     OPER     JKOP   

              2       4        1.31       700     1000      520     2100   
                                         GEOM     BASIS   MCVARS     RHF  

 PROGRAMS   *        TOTAL      CCSD    HF-SCF       INT
 CPU TIMES  *       225.39    143.84      8.62     72.83
 REAL TIME  *       269.45 SEC
 DISK USED  *        10.08 GB
 **********************************************************************************************************************************

 Dump information in style XML to xml output                                                                      

 Orbitals will not be exported.

 **********************************************************************************************************************************

 CCSD/cc-pVTZ energy=   -236.689940414310

            CCSD          HF-SCF
   -236.68994041   -235.44558197
 **********************************************************************************************************************************
 Molpro calculation terminated
